 Entering Gaussian System, Link 0=g16
 Initial command:
 /apps/gaussian/g16c01/g16/l1.exe "/jobfs/125256300.gadi-pbs/Gau-3246817.inp" -scrdir="/jobfs/125256300.gadi-pbs/"
 Entering Link 1 = /apps/gaussian/g16c01/g16/l1.exe PID=   3246818.
  
 Copyright (c) 1988-2019, Gaussian, Inc.  All Rights Reserved.
  
 This is part of the Gaussian(R) 16 program.  It is based on
 the Gaussian(R) 09 system (copyright 2009, Gaussian, Inc.),
 the Gaussian(R) 03 system (copyright 2003, Gaussian, Inc.),
 the Gaussian(R) 98 system (copyright 1998, Gaussian, Inc.),
 the Gaussian(R) 94 system (copyright 1995, Gaussian, Inc.),
 the Gaussian 92(TM) system (copyright 1992, Gaussian, Inc.),
 the Gaussian 90(TM) system (copyright 1990, Gaussian, Inc.),
 the Gaussian 88(TM) system (copyright 1988, Gaussian, Inc.),
 the Gaussian 86(TM) system (copyright 1986, Carnegie Mellon
 University), and the Gaussian 82(TM) system (copyright 1983,
 Carnegie Mellon University). Gaussian is a federally registered
 trademark of Gaussian, Inc.
  
 This software contains proprietary and confidential information,
 including trade secrets, belonging to Gaussian, Inc.
  
 This software is provided under written license and may be
 used, copied, transmitted, or stored only in accord with that
 written license.
  
 The following legend is applicable only to US Government
 contracts under FAR:
  
                    RESTRICTED RIGHTS LEGEND
  
 Use, reproduction and disclosure by the US Government is
 subject to restrictions as set forth in subparagraphs (a)
 and (c) of the Commercial Computer Software - Restricted
 Rights clause in FAR 52.227-19.
  
 Gaussian, Inc.
 340 Quinnipiac St., Bldg. 40, Wallingford CT 06492
  
  
 ---------------------------------------------------------------
 Warning -- This program may not be used in any manner that
 competes with the business of Gaussian, Inc. or will provide
 assistance to any competitor of Gaussian, Inc.  The licensee
 of this program is prohibited from giving any competitor of
 Gaussian, Inc. access to this program.  By using this program,
 the user acknowledges that Gaussian, Inc. is engaged in the
 business of creating and licensing software in the field of
 computational chemistry and represents and warrants to the
 licensee that it is not a competitor of Gaussian, Inc. and that
 it will not use this program in any manner prohibited above.
 ---------------------------------------------------------------
  

 Cite this work as:
 Gaussian 16, Revision C.01,
 M. J. Frisch, G. W. Trucks, H. B. Schlegel, G. E. Scuseria, 
 M. A. Robb, J. R. Cheeseman, G. Scalmani, V. Barone, 
 G. A. Petersson, H. Nakatsuji, X. Li, M. Caricato, A. V. Marenich, 
 J. Bloino, B. G. Janesko, R. Gomperts, B. Mennucci, H. P. Hratchian, 
 J. V. Ortiz, A. F. Izmaylov, J. L. Sonnenberg, D. Williams-Young, 
 F. Ding, F. Lipparini, F. Egidi, J. Goings, B. Peng, A. Petrone, 
 T. Henderson, D. Ranasinghe, V. G. Zakrzewski, J. Gao, N. Rega, 
 G. Zheng, W. Liang, M. Hada, M. Ehara, K. Toyota, R. Fukuda, 
 J. Hasegawa, M. Ishida, T. Nakajima, Y. Honda, O. Kitao, H. Nakai, 
 T. Vreven, K. Throssell, J. A. Montgomery, Jr., J. E. Peralta, 
 F. Ogliaro, M. J. Bearpark, J. J. Heyd, E. N. Brothers, K. N. Kudin, 
 V. N. Staroverov, T. A. Keith, R. Kobayashi, J. Normand, 
 K. Raghavachari, A. P. Rendell, J. C. Burant, S. S. Iyengar, 
 J. Tomasi, M. Cossi, J. M. Millam, M. Klene, C. Adamo, R. Cammi, 
 J. W. Ochterski, R. L. Martin, K. Morokuma, O. Farkas, 
 J. B. Foresman, and D. J. Fox, Gaussian, Inc., Wallingford CT, 2019.
 
 ******************************************
 Gaussian 16:  ES64L-G16RevC.01  3-Jul-2019
                23-Sep-2024 
 ******************************************
 %mem=60gb
 %nprocs=48
 Will use up to   48 processors via shared memory.
 %RWF=/scratch/gy60/or4187/rwf/glydehydratedcyclic.CONF1.rwf
 %NoSave
 %Chk=glydehydratedcyclic.CONF1.chk
 ----------------------------------------------------------------------
 #UM06/Def2TZVP OPT Freq=Noraman INT(grid=ultrafine) EmpiricalDispersio
 n=GD3 SCF=XQC Pop=NPA
 ----------------------------------------------------------------------
 1/18=20,19=15,26=4,38=1/1,3;
 2/9=110,12=2,17=6,18=5,40=1/2;
 3/5=44,7=101,11=2,25=1,30=1,71=1,74=-54,75=-5,116=2,124=31/1,2,3;
 4//1;
 5/5=2,8=3,13=1,38=5/2,8;
 6/7=2,8=2,9=2,10=2,28=1,40=-1/1,7;
 7//1,2,3,16;
 1/18=20,19=15,26=4/3(2);
 2/9=110/2;
 99//99;
 2/9=110/2;
 3/5=44,7=101,11=2,25=1,30=1,71=1,74=-54,75=-5,116=2,124=31/1,2,3;
 4/5=5,16=3,69=1/1;
 5/5=2,8=3,13=1,38=5/2,8;
 7//1,2,3,16;
 1/18=20,19=15,26=4/3(-5);
 2/9=110/2;
 6/7=2,8=2,9=2,10=2,19=2,28=1,40=-1/1,7;
 99/9=1/99;
 ---------------------------------
 glydehydratedcyclic.CONF1.optfreq
 ---------------------------------
 Symbolic Z-matrix:
 Charge = -1 Multiplicity = 1
 N                    -0.61414  -1.87267   0.10288 
 C                     0.55548  -1.41254  -0.6765 
 P                     1.17042   0.1772    0.02738 
 H                     0.27556  -1.30394  -1.73344 
 H                     1.35413  -2.1632   -0.61757 
 O                     2.11249   0.89954  -0.87887 
 O                    -0.35305   1.05791  -0.11439 
 C                    -1.75455  -0.98321  -0.10679 
 H                    -0.3346   -1.79192   1.08022 
 C                    -1.57351   0.5441   -0.03949 
 H                    -2.55145  -1.2303    0.60342 
 H                    -2.17112  -1.17182  -1.10938 
 O                    -2.56414   1.25337   0.0067 
 O                     1.36647  -0.04061   1.50097 
 

 GradGradGradGradGradGradGradGradGradGradGradGradGradGradGradGradGradGrad
 Berny optimization.
 Initialization pass.
                           ----------------------------
                           !    Initial Parameters    !
                           ! (Angstroms and Degrees)  !
 --------------------------                            --------------------------
 ! Name  Definition              Value          Derivative Info.                !
 --------------------------------------------------------------------------------
 ! R1    R(1,2)                  1.4789         estimate D2E/DX2                !
 ! R2    R(1,8)                  1.4614         estimate D2E/DX2                !
 ! R3    R(1,9)                  1.0197         estimate D2E/DX2                !
 ! R4    R(2,3)                  1.8441         estimate D2E/DX2                !
 ! R5    R(2,4)                  1.0988         estimate D2E/DX2                !
 ! R6    R(2,5)                  1.0976         estimate D2E/DX2                !
 ! R7    R(3,6)                  1.4935         estimate D2E/DX2                !
 ! R8    R(3,7)                  1.7654         estimate D2E/DX2                !
 ! R9    R(3,14)                 1.5025         estimate D2E/DX2                !
 ! R10   R(7,10)                 1.3263         estimate D2E/DX2                !
 ! R11   R(8,10)                 1.5395         estimate D2E/DX2                !
 ! R12   R(8,11)                 1.0957         estimate D2E/DX2                !
 ! R13   R(8,12)                 1.102          estimate D2E/DX2                !
 ! R14   R(10,13)                1.2192         estimate D2E/DX2                !
 ! A1    A(2,1,8)              110.6209         estimate D2E/DX2                !
 ! A2    A(2,1,9)              105.2863         estimate D2E/DX2                !
 ! A3    A(8,1,9)              107.6518         estimate D2E/DX2                !
 ! A4    A(1,2,3)              109.3164         estimate D2E/DX2                !
 ! A5    A(1,2,4)              109.6461         estimate D2E/DX2                !
 ! A6    A(1,2,5)              109.534          estimate D2E/DX2                !
 ! A7    A(3,2,4)              111.5251         estimate D2E/DX2                !
 ! A8    A(3,2,5)              109.052          estimate D2E/DX2                !
 ! A9    A(4,2,5)              107.7343         estimate D2E/DX2                !
 ! A10   A(2,3,6)              113.3075         estimate D2E/DX2                !
 ! A11   A(2,3,7)               96.4097         estimate D2E/DX2                !
 ! A12   A(2,3,14)             107.0311         estimate D2E/DX2                !
 ! A13   A(6,3,7)              104.7337         estimate D2E/DX2                !
 ! A14   A(6,3,14)             125.6581         estimate D2E/DX2                !
 ! A15   A(7,3,14)             105.2889         estimate D2E/DX2                !
 ! A16   A(3,7,10)             126.6041         estimate D2E/DX2                !
 ! A17   A(1,8,10)             120.3839         estimate D2E/DX2                !
 ! A18   A(1,8,11)             109.7129         estimate D2E/DX2                !
 ! A19   A(1,8,12)             108.7453         estimate D2E/DX2                !
 ! A20   A(10,8,11)            106.3161         estimate D2E/DX2                !
 ! A21   A(10,8,12)            104.7165         estimate D2E/DX2                !
 ! A22   A(11,8,12)            106.0339         estimate D2E/DX2                !
 ! A23   A(7,10,8)             119.3458         estimate D2E/DX2                !
 ! A24   A(7,10,13)            121.6296         estimate D2E/DX2                !
 ! A25   A(8,10,13)            118.8973         estimate D2E/DX2                !
 ! D1    D(8,1,2,3)             68.3264         estimate D2E/DX2                !
 ! D2    D(8,1,2,4)            -54.2184         estimate D2E/DX2                !
 ! D3    D(8,1,2,5)           -172.2422         estimate D2E/DX2                !
 ! D4    D(9,1,2,3)            -47.6957         estimate D2E/DX2                !
 ! D5    D(9,1,2,4)           -170.2404         estimate D2E/DX2                !
 ! D6    D(9,1,2,5)             71.7358         estimate D2E/DX2                !
 ! D7    D(2,1,8,10)           -46.4012         estimate D2E/DX2                !
 ! D8    D(2,1,8,11)          -170.1822         estimate D2E/DX2                !
 ! D9    D(2,1,8,12)            74.2594         estimate D2E/DX2                !
 ! D10   D(9,1,8,10)            68.14           estimate D2E/DX2                !
 ! D11   D(9,1,8,11)           -55.6409         estimate D2E/DX2                !
 ! D12   D(9,1,8,12)          -171.1994         estimate D2E/DX2                !
 ! D13   D(1,2,3,6)           -165.2776         estimate D2E/DX2                !
 ! D14   D(1,2,3,7)            -56.1869         estimate D2E/DX2                !
 ! D15   D(1,2,3,14)            51.9885         estimate D2E/DX2                !
 ! D16   D(4,2,3,6)            -43.8633         estimate D2E/DX2                !
 ! D17   D(4,2,3,7)             65.2275         estimate D2E/DX2                !
 ! D18   D(4,2,3,14)           173.4029         estimate D2E/DX2                !
 ! D19   D(5,2,3,6)             74.9936         estimate D2E/DX2                !
 ! D20   D(5,2,3,7)           -175.9156         estimate D2E/DX2                !
 ! D21   D(5,2,3,14)           -67.7402         estimate D2E/DX2                !
 ! D22   D(2,3,7,10)            30.7205         estimate D2E/DX2                !
 ! D23   D(6,3,7,10)           146.9031         estimate D2E/DX2                !
 ! D24   D(14,3,7,10)          -78.9285         estimate D2E/DX2                !
 ! D25   D(3,7,10,8)           -12.8803         estimate D2E/DX2                !
 ! D26   D(3,7,10,13)          171.2672         estimate D2E/DX2                !
 ! D27   D(1,8,10,7)            16.2087         estimate D2E/DX2                !
 ! D28   D(1,8,10,13)         -167.8248         estimate D2E/DX2                !
 ! D29   D(11,8,10,7)          141.5924         estimate D2E/DX2                !
 ! D30   D(11,8,10,13)         -42.4411         estimate D2E/DX2                !
 ! D31   D(12,8,10,7)         -106.4177         estimate D2E/DX2                !
 ! D32   D(12,8,10,13)          69.5488         estimate D2E/DX2                !
 --------------------------------------------------------------------------------
 Trust Radius=3.00D-01 FncErr=1.00D-07 GrdErr=1.00D-06 EigMax=2.50D+02 EigMin=1.00D-04
 Number of steps in this run=     81 maximum allowed number of steps=    100.
 GradGradGradGradGradGradGradGradGradGradGradGradGradGradGradGradGradGrad

                          Input orientation:                          
 ---------------------------------------------------------------------
 Center     Atomic      Atomic             Coordinates (Angstroms)
 Number     Number       Type             X           Y           Z
 ---------------------------------------------------------------------
      1          7           0       -0.614143   -1.872674    0.102883
      2          6           0        0.555482   -1.412535   -0.676500
      3         15           0        1.170424    0.177202    0.027380
      4          1           0        0.275563   -1.303940   -1.733438
      5          1           0        1.354133   -2.163198   -0.617569
      6          8           0        2.112490    0.899539   -0.878867
      7          8           0       -0.353045    1.057906   -0.114385
      8          6           0       -1.754552   -0.983210   -0.106787
      9          1           0       -0.334598   -1.791915    1.080223
     10          6           0       -1.573505    0.544097   -0.039490
     11          1           0       -2.551447   -1.230304    0.603422
     12          1           0       -2.171123   -1.171820   -1.109384
     13          8           0       -2.564139    1.253374    0.006703
     14          8           0        1.366475   -0.040613    1.500975
 ---------------------------------------------------------------------
                    Distance matrix (angstroms):
                    1          2          3          4          5
     1  N    0.000000
     2  C    1.478915   0.000000
     3  P    2.718892   1.844144   0.000000
     4  H    2.118281   1.098756   2.468813   0.000000
     5  H    2.116026   1.097639   2.434581   1.773923   0.000000
     6  O    4.010428   2.794802   1.493500   2.993311   3.166030
     7  O    2.950200   2.691556   1.765416   2.931688   3.680104
     8  C    1.461383   2.417675   3.149610   2.621113   3.364104
     9  H    1.019736   2.005554   2.692767   2.920121   2.423254
    10  C    2.604118   2.960875   2.769157   3.115085   4.029230
    11  H    2.101505   3.365176   4.020599   3.668558   4.196982
    12  H    2.094033   2.771228   3.778627   2.528472   3.694880
    13  O    3.685636   4.160033   3.886584   4.199030   5.235985
    14  O    3.038742   2.698384   1.502452   3.639712   2.998957
                    6          7          8          9         10
     6  O    0.000000
     7  O    2.586189   0.000000
     8  C    4.369768   2.475971   0.000000
     9  H    4.131610   3.090131   2.019719   0.000000
    10  C    3.797032   1.326322   1.539472   2.871516   0.000000
    11  H    5.337201   3.253324   1.095669   2.336058   2.125607
    12  H    4.763718   3.044192   1.101955   2.924332   2.108599
    13  O    4.772871   2.223017   2.381306   3.923913   1.219247
    14  O    2.665346   2.602476   3.635133   2.477446   3.370223
                   11         12         13         14
    11  H    0.000000
    12  H    1.755497   0.000000
    13  O    2.554387   2.698458   0.000000
    14  O    4.191786   4.539625   4.399656   0.000000
 Stoichiometry    C3H5NO4P(1-)
 Framework group  C1[X(C3H5NO4P)]
 Deg. of freedom    36
 Full point group                 C1      NOp   1
 Largest Abelian subgroup         C1      NOp   1
 Largest concise Abelian subgroup C1      NOp   1
                         Standard orientation:                         
 ---------------------------------------------------------------------
 Center     Atomic      Atomic             Coordinates (Angstroms)
 Number     Number       Type             X           Y           Z
 ---------------------------------------------------------------------
      1          7           0        0.596093    1.819944    0.101064
      2          6           0       -0.575650    1.358369   -0.674278
      3         15           0       -1.201980   -0.218794    0.047619
      4          1           0       -0.295219    1.235392   -1.729503
      5          1           0       -1.369359    2.114963   -0.625248
      6          8           0       -2.147766   -0.945557   -0.851185
      7          8           0        0.315762   -1.111209   -0.081790
      8          6           0        1.730806    0.920505   -0.096621
      9          1           0        0.314869    1.752637    1.078941
     10          6           0        1.539524   -0.604661   -0.011459
     11          1           0        2.528491    1.170709    0.611607
     12          1           0        2.149799    1.094444   -1.100860
     13          8           0        2.525363   -1.319900    0.044378
     14          8           0       -1.398309    0.017777    1.518282
 ---------------------------------------------------------------------
 Rotational constants (GHZ):           2.3146537           1.2624198           1.0154652
 Standard basis: def2TZVP (5D, 7F)
 There are   360 symmetry adapted cartesian basis functions of A   symmetry.
 There are   315 symmetry adapted basis functions of A   symmetry.
   315 basis functions,   517 primitive gaussians,   360 cartesian basis functions
    39 alpha electrons       39 beta electrons
       nuclear repulsion energy       582.7106648328 Hartrees.
 NAtoms=   14 NActive=   14 NUniq=   14 SFac= 1.00D+00 NAtFMM=   60 NAOKFM=F Big=F
 Integral buffers will be    131072 words long.
 Raffenetti 2 integral format.
 Two-electron integral symmetry is turned on.
 Nuclear repulsion after empirical dispersion term =      582.7092665072 Hartrees.
 One-electron integrals computed using PRISM.
   1 Symmetry operations used in ECPInt.
 ECPInt:  NShTT=    7381 NPrTT=   23880 LenC2=    7149 LenP2D=   17915.
 LDataN:  DoStor=T MaxTD1= 6 Len=  172
 NBasis=   315 RedAO= T EigKep=  2.86D-04  NBF=   315
 NBsUse=   315 1.00D-06 EigRej= -1.00D+00 NBFU=   315
 ExpMin= 9.04D-02 ExpMax= 5.24D+04 ExpMxC= 1.79D+03 IAcc=3 IRadAn=         5 AccDes= 0.00D+00
 Harris functional with IExCor= 1009 and IRadAn=       5 diagonalized for initial guess.
 HarFok:  IExCor= 1009 AccDes= 0.00D+00 IRadAn=         5 IDoV= 1 UseB2=F ITyADJ=14
 ICtDFT=  3500011 ScaDFX=  1.000000  1.000000  1.000000  1.000000
 FoFCou: FMM=F IPFlag=           0 FMFlag=      100000 FMFlg1=           0
         NFxFlg=           0 DoJE=T BraDBF=F KetDBF=T FulRan=T
         wScrn=  0.000000 ICntrl=       500 IOpCl=  0 I1Cent=   200000004 NGrid=           0
         NMat0=    1 NMatS0=      1 NMatT0=    0 NMatD0=    1 NMtDS0=    0 NMtDT0=    0
 Petite list used in FoFCou.
 Initial guess <Sx>= 0.0000 <Sy>= 0.0000 <Sz>= 0.0000 <S**2>=-0.0000 S=-0.0000
 Requested convergence on RMS density matrix=1.00D-08 within  32 cycles.
 Requested convergence on MAX density matrix=1.00D-06.
 Requested convergence on             energy=1.00D-06.
 No special actions if energy rises.
 Integral accuracy reduced to 1.0D-05 until final iterations.
 Initial convergence to 1.0D-05 achieved.  Increase integral accuracy.
 SCF Done:  E(UM06) =  -814.452170628     A.U. after   15 cycles
            NFock= 15  Conv=0.47D-08     -V/T= 2.0036
 <Sx>= 0.0000 <Sy>= 0.0000 <Sz>= 0.0000 <S**2>=-0.0000 S=-0.0000
 <L.S>= 0.000000000000E+00
 Annihilation of the first spin contaminant:
 S**2 before annihilation    -0.0000,   after    -0.0000
 QCSCF skips out because SCF is already converged.

 **********************************************************************

            Population analysis using the SCF Density.

 **********************************************************************

 Orbital symmetries:
 Alpha Orbitals:
       Occupied  (A) (A) (A) (A) (A) (A) (A) (A) (A) (A) (A) (A)
                 (A) (A) (A) (A) (A) (A) (A) (A) (A) (A) (A) (A)
                 (A) (A) (A) (A) (A) (A) (A) (A) (A) (A) (A) (A)
                 (A) (A) (A)
       Virtual   (A) (A) (A) (A) (A) (A) (A) (A) (A) (A) (A) (A)
                 (A) (A) (A) (A) (A) (A) (A) (A) (A) (A) (A) (A)
                 (A) (A) (A) (A) (A) (A) (A) (A) (A) (A) (A) (A)
                 (A) (A) (A) (A) (A) (A) (A) (A) (A) (A) (A) (A)
                 (A) (A) (A) (A) (A) (A) (A) (A) (A) (A) (A) (A)
                 (A) (A) (A) (A) (A) (A) (A) (A) (A) (A) (A) (A)
                 (A) (A) (A) (A) (A) (A) (A) (A) (A) (A) (A) (A)
                 (A) (A) (A) (A) (A) (A) (A) (A) (A) (A) (A) (A)
                 (A) (A) (A) (A) (A) (A) (A) (A) (A) (A) (A) (A)
                 (A) (A) (A) (A) (A) (A) (A) (A) (A) (A) (A) (A)
                 (A) (A) (A) (A) (A) (A) (A) (A) (A) (A) (A) (A)
                 (A) (A) (A) (A) (A) (A) (A) (A) (A) (A) (A) (A)
                 (A) (A) (A) (A) (A) (A) (A) (A) (A) (A) (A) (A)
                 (A) (A) (A) (A) (A) (A) (A) (A) (A) (A) (A) (A)
                 (A) (A) (A) (A) (A) (A) (A) (A) (A) (A) (A) (A)
                 (A) (A) (A) (A) (A) (A) (A) (A) (A) (A) (A) (A)
                 (A) (A) (A) (A) (A) (A) (A) (A) (A) (A) (A) (A)
                 (A) (A) (A) (A) (A) (A) (A) (A) (A) (A) (A) (A)
                 (A) (A) (A) (A) (A) (A) (A) (A) (A) (A) (A) (A)
                 (A) (A) (A) (A) (A) (A) (A) (A) (A) (A) (A) (A)
                 (A) (A) (A) (A) (A) (A) (A) (A) (A) (A) (A) (A)
                 (A) (A) (A) (A) (A) (A) (A) (A) (A) (A) (A) (A)
                 (A) (A) (A) (A) (A) (A) (A) (A) (A) (A) (A) (A)
 Beta  Orbitals:
       Occupied  (A) (A) (A) (A) (A) (A) (A) (A) (A) (A) (A) (A)
                 (A) (A) (A) (A) (A) (A) (A) (A) (A) (A) (A) (A)
                 (A) (A) (A) (A) (A) (A) (A) (A) (A) (A) (A) (A)
                 (A) (A) (A)
       Virtual   (A) (A) (A) (A) (A) (A) (A) (A) (A) (A) (A) (A)
                 (A) (A) (A) (A) (A) (A) (A) (A) (A) (A) (A) (A)
                 (A) (A) (A) (A) (A) (A) (A) (A) (A) (A) (A) (A)
                 (A) (A) (A) (A) (A) (A) (A) (A) (A) (A) (A) (A)
                 (A) (A) (A) (A) (A) (A) (A) (A) (A) (A) (A) (A)
                 (A) (A) (A) (A) (A) (A) (A) (A) (A) (A) (A) (A)
                 (A) (A) (A) (A) (A) (A) (A) (A) (A) (A) (A) (A)
                 (A) (A) (A) (A) (A) (A) (A) (A) (A) (A) (A) (A)
                 (A) (A) (A) (A) (A) (A) (A) (A) (A) (A) (A) (A)
                 (A) (A) (A) (A) (A) (A) (A) (A) (A) (A) (A) (A)
                 (A) (A) (A) (A) (A) (A) (A) (A) (A) (A) (A) (A)
                 (A) (A) (A) (A) (A) (A) (A) (A) (A) (A) (A) (A)
                 (A) (A) (A) (A) (A) (A) (A) (A) (A) (A) (A) (A)
                 (A) (A) (A) (A) (A) (A) (A) (A) (A) (A) (A) (A)
                 (A) (A) (A) (A) (A) (A) (A) (A) (A) (A) (A) (A)
                 (A) (A) (A) (A) (A) (A) (A) (A) (A) (A) (A) (A)
                 (A) (A) (A) (A) (A) (A) (A) (A) (A) (A) (A) (A)
                 (A) (A) (A) (A) (A) (A) (A) (A) (A) (A) (A) (A)
                 (A) (A) (A) (A) (A) (A) (A) (A) (A) (A) (A) (A)
                 (A) (A) (A) (A) (A) (A) (A) (A) (A) (A) (A) (A)
                 (A) (A) (A) (A) (A) (A) (A) (A) (A) (A) (A) (A)
                 (A) (A) (A) (A) (A) (A) (A) (A) (A) (A) (A) (A)
                 (A) (A) (A) (A) (A) (A) (A) (A) (A) (A) (A) (A)
 The electronic state is 1-A.
 Alpha  occ. eigenvalues --  -77.14215 -19.08952 -19.04711 -18.99231 -18.99210
 Alpha  occ. eigenvalues --  -14.25964 -10.23024 -10.15281 -10.12960  -6.54786
 Alpha  occ. eigenvalues --   -4.67083  -4.66620  -4.66430  -0.96496  -0.88948
 Alpha  occ. eigenvalues --   -0.83543  -0.79966  -0.78809  -0.61074  -0.53847
 Alpha  occ. eigenvalues --   -0.48201  -0.41507  -0.37922  -0.35418  -0.33437
 Alpha  occ. eigenvalues --   -0.32310  -0.30482  -0.26664  -0.25593  -0.25539
 Alpha  occ. eigenvalues --   -0.23020  -0.22354  -0.19703  -0.18333  -0.16137
 Alpha  occ. eigenvalues --   -0.14199  -0.13658  -0.12563  -0.10270
 Alpha virt. eigenvalues --    0.14398   0.15805   0.18942   0.19535   0.22121
 Alpha virt. eigenvalues --    0.22786   0.24426   0.26109   0.28303   0.28361
 Alpha virt. eigenvalues --    0.30057   0.30880   0.32238   0.34210   0.36905
 Alpha virt. eigenvalues --    0.37123   0.37976   0.40347   0.40376   0.42063
 Alpha virt. eigenvalues --    0.42625   0.43776   0.44332   0.45309   0.46421
 Alpha virt. eigenvalues --    0.48541   0.48783   0.51387   0.51788   0.52199
 Alpha virt. eigenvalues --    0.53406   0.55353   0.57170   0.58724   0.59288
 Alpha virt. eigenvalues --    0.60858   0.62437   0.62923   0.63952   0.66247
 Alpha virt. eigenvalues --    0.66687   0.69420   0.69887   0.71503   0.71767
 Alpha virt. eigenvalues --    0.73474   0.75143   0.75703   0.78175   0.79811
 Alpha virt. eigenvalues --    0.81516   0.81912   0.85158   0.86283   0.88941
 Alpha virt. eigenvalues --    0.91151   0.91930   0.92745   0.95581   0.96964
 Alpha virt. eigenvalues --    0.99355   1.01219   1.01525   1.05229   1.05317
 Alpha virt. eigenvalues --    1.08551   1.11588   1.13632   1.14462   1.15003
 Alpha virt. eigenvalues --    1.18985   1.21061   1.25726   1.28419   1.36022
 Alpha virt. eigenvalues --    1.38094   1.40449   1.42064   1.44643   1.46558
 Alpha virt. eigenvalues --    1.48109   1.51059   1.52342   1.54083   1.55502
 Alpha virt. eigenvalues --    1.55858   1.57044   1.59788   1.61287   1.61631
 Alpha virt. eigenvalues --    1.63550   1.64801   1.67972   1.69661   1.72023
 Alpha virt. eigenvalues --    1.75301   1.76096   1.76871   1.80573   1.82732
 Alpha virt. eigenvalues --    1.86793   1.88031   1.89998   1.91149   1.93791
 Alpha virt. eigenvalues --    1.95784   1.98438   1.99719   2.01433   2.03103
 Alpha virt. eigenvalues --    2.06732   2.07146   2.08329   2.09927   2.12019
 Alpha virt. eigenvalues --    2.12360   2.17083   2.19459   2.23627   2.24935
 Alpha virt. eigenvalues --    2.25896   2.27751   2.29387   2.31773   2.33238
 Alpha virt. eigenvalues --    2.33640   2.37258   2.38792   2.41436   2.42827
 Alpha virt. eigenvalues --    2.44327   2.46165   2.46924   2.50513   2.51716
 Alpha virt. eigenvalues --    2.54205   2.57160   2.58278   2.62776   2.64459
 Alpha virt. eigenvalues --    2.65951   2.69876   2.73823   2.76043   2.77852
 Alpha virt. eigenvalues --    2.83771   2.84805   2.88359   2.90220   2.90593
 Alpha virt. eigenvalues --    2.94727   2.99436   3.00785   3.06925   3.09882
 Alpha virt. eigenvalues --    3.10593   3.12801   3.13480   3.15668   3.16786
 Alpha virt. eigenvalues --    3.18211   3.19367   3.22117   3.25822   3.26534
 Alpha virt. eigenvalues --    3.27556   3.30062   3.32098   3.34403   3.36317
 Alpha virt. eigenvalues --    3.37231   3.38996   3.41601   3.43492   3.45567
 Alpha virt. eigenvalues --    3.47941   3.50938   3.52318   3.54869   3.56336
 Alpha virt. eigenvalues --    3.58820   3.64769   3.65320   3.70312   3.71489
 Alpha virt. eigenvalues --    3.74714   3.77138   3.79381   3.82571   3.91841
 Alpha virt. eigenvalues --    3.93244   3.97606   4.07014   4.11501   4.14797
 Alpha virt. eigenvalues --    4.21037   4.22787   4.24737   4.26481   4.32754
 Alpha virt. eigenvalues --    4.35875   4.47588   4.61300   4.68784   4.78686
 Alpha virt. eigenvalues --    4.81730   4.95788   5.12098   5.13713   5.20973
 Alpha virt. eigenvalues --    5.30340   5.31372   5.31774   5.33853   5.35065
 Alpha virt. eigenvalues --    5.36552   5.37080   5.37750   5.37948   5.38529
 Alpha virt. eigenvalues --    5.39305   5.41548   5.43886   5.46280   5.47741
 Alpha virt. eigenvalues --    5.49834   5.51591   5.56840   5.60678   5.61071
 Alpha virt. eigenvalues --    5.65372   5.72311   5.73702   5.77308   5.78508
 Alpha virt. eigenvalues --    5.80556   5.86086   5.89617   5.99862   6.09894
 Alpha virt. eigenvalues --    6.22986   6.29336   6.46822   6.56294   6.57964
 Alpha virt. eigenvalues --    6.59871   6.64026   6.67362   6.68990   6.76986
 Alpha virt. eigenvalues --    6.84366   6.92218   6.95147   6.95964   6.99043
 Alpha virt. eigenvalues --    7.00611   7.06758   7.09869   7.10454   7.13794
 Alpha virt. eigenvalues --    7.18570   7.22930   7.31091   7.42600   7.97946
 Alpha virt. eigenvalues --    8.18153   8.51793  16.74946  22.45712  22.56174
 Alpha virt. eigenvalues --   23.41470  32.37276  43.67511  43.92671  43.98945
 Alpha virt. eigenvalues --   44.06558
  Beta  occ. eigenvalues --  -77.14215 -19.08952 -19.04711 -18.99231 -18.99210
  Beta  occ. eigenvalues --  -14.25964 -10.23024 -10.15281 -10.12960  -6.54786
  Beta  occ. eigenvalues --   -4.67083  -4.66620  -4.66430  -0.96496  -0.88948
  Beta  occ. eigenvalues --   -0.83543  -0.79966  -0.78809  -0.61074  -0.53847
  Beta  occ. eigenvalues --   -0.48201  -0.41507  -0.37922  -0.35418  -0.33437
  Beta  occ. eigenvalues --   -0.32310  -0.30482  -0.26664  -0.25593  -0.25539
  Beta  occ. eigenvalues --   -0.23020  -0.22354  -0.19703  -0.18333  -0.16137
  Beta  occ. eigenvalues --   -0.14199  -0.13658  -0.12563  -0.10270
  Beta virt. eigenvalues --    0.14398   0.15805   0.18942   0.19535   0.22121
  Beta virt. eigenvalues --    0.22786   0.24426   0.26109   0.28303   0.28361
  Beta virt. eigenvalues --    0.30057   0.30880   0.32238   0.34210   0.36905
  Beta virt. eigenvalues --    0.37123   0.37976   0.40347   0.40376   0.42063
  Beta virt. eigenvalues --    0.42625   0.43776   0.44332   0.45309   0.46421
  Beta virt. eigenvalues --    0.48541   0.48783   0.51387   0.51788   0.52199
  Beta virt. eigenvalues --    0.53406   0.55353   0.57170   0.58724   0.59288
  Beta virt. eigenvalues --    0.60858   0.62437   0.62923   0.63952   0.66247
  Beta virt. eigenvalues --    0.66687   0.69420   0.69887   0.71503   0.71767
  Beta virt. eigenvalues --    0.73474   0.75143   0.75703   0.78175   0.79811
  Beta virt. eigenvalues --    0.81516   0.81912   0.85158   0.86283   0.88941
  Beta virt. eigenvalues --    0.91151   0.91930   0.92745   0.95581   0.96964
  Beta virt. eigenvalues --    0.99355   1.01219   1.01525   1.05229   1.05317
  Beta virt. eigenvalues --    1.08551   1.11588   1.13632   1.14462   1.15003
  Beta virt. eigenvalues --    1.18985   1.21061   1.25726   1.28419   1.36022
  Beta virt. eigenvalues --    1.38094   1.40449   1.42064   1.44643   1.46558
  Beta virt. eigenvalues --    1.48109   1.51059   1.52342   1.54083   1.55502
  Beta virt. eigenvalues --    1.55858   1.57044   1.59788   1.61287   1.61631
  Beta virt. eigenvalues --    1.63550   1.64801   1.67972   1.69661   1.72023
  Beta virt. eigenvalues --    1.75301   1.76096   1.76871   1.80573   1.82732
  Beta virt. eigenvalues --    1.86793   1.88031   1.89998   1.91149   1.93791
  Beta virt. eigenvalues --    1.95784   1.98438   1.99719   2.01433   2.03103
  Beta virt. eigenvalues --    2.06732   2.07146   2.08329   2.09927   2.12019
  Beta virt. eigenvalues --    2.12360   2.17083   2.19459   2.23627   2.24935
  Beta virt. eigenvalues --    2.25896   2.27751   2.29387   2.31773   2.33238
  Beta virt. eigenvalues --    2.33640   2.37258   2.38792   2.41436   2.42827
  Beta virt. eigenvalues --    2.44327   2.46165   2.46924   2.50513   2.51716
  Beta virt. eigenvalues --    2.54205   2.57160   2.58278   2.62776   2.64459
  Beta virt. eigenvalues --    2.65951   2.69876   2.73823   2.76043   2.77852
  Beta virt. eigenvalues --    2.83771   2.84805   2.88359   2.90220   2.90593
  Beta virt. eigenvalues --    2.94727   2.99436   3.00785   3.06925   3.09882
  Beta virt. eigenvalues --    3.10593   3.12801   3.13480   3.15668   3.16786
  Beta virt. eigenvalues --    3.18211   3.19367   3.22117   3.25822   3.26534
  Beta virt. eigenvalues --    3.27556   3.30062   3.32098   3.34403   3.36317
  Beta virt. eigenvalues --    3.37231   3.38996   3.41601   3.43492   3.45567
  Beta virt. eigenvalues --    3.47941   3.50938   3.52318   3.54869   3.56336
  Beta virt. eigenvalues --    3.58820   3.64769   3.65320   3.70312   3.71489
  Beta virt. eigenvalues --    3.74714   3.77138   3.79381   3.82571   3.91841
  Beta virt. eigenvalues --    3.93244   3.97606   4.07014   4.11501   4.14797
  Beta virt. eigenvalues --    4.21037   4.22787   4.24737   4.26481   4.32754
  Beta virt. eigenvalues --    4.35875   4.47588   4.61300   4.68784   4.78686
  Beta virt. eigenvalues --    4.81730   4.95788   5.12098   5.13713   5.20973
  Beta virt. eigenvalues --    5.30340   5.31372   5.31774   5.33853   5.35065
  Beta virt. eigenvalues --    5.36552   5.37080   5.37750   5.37948   5.38529
  Beta virt. eigenvalues --    5.39305   5.41548   5.43886   5.46280   5.47741
  Beta virt. eigenvalues --    5.49834   5.51591   5.56840   5.60678   5.61071
  Beta virt. eigenvalues --    5.65372   5.72311   5.73702   5.77308   5.78508
  Beta virt. eigenvalues --    5.80556   5.86086   5.89617   5.99862   6.09894
  Beta virt. eigenvalues --    6.22986   6.29336   6.46822   6.56294   6.57964
  Beta virt. eigenvalues --    6.59871   6.64026   6.67362   6.68990   6.76986
  Beta virt. eigenvalues --    6.84366   6.92218   6.95147   6.95964   6.99043
  Beta virt. eigenvalues --    7.00611   7.06758   7.09869   7.10454   7.13794
  Beta virt. eigenvalues --    7.18570   7.22930   7.31091   7.42600   7.97946
  Beta virt. eigenvalues --    8.18153   8.51793  16.74946  22.45712  22.56174
  Beta virt. eigenvalues --   23.41470  32.37276  43.67511  43.92671  43.98945
  Beta virt. eigenvalues --   44.06558
          Condensed to atoms (all electrons):
               1          2          3          4          5          6
     1  N    6.837396   0.134585  -0.042889  -0.035447  -0.027612   0.005636
     2  C    0.134585   5.297467   0.306841   0.359792   0.353882  -0.066389
     3  P   -0.042889   0.306841  12.625682  -0.036570  -0.035909   0.650118
     4  H   -0.035447   0.359792  -0.036570   0.633225  -0.017217   0.006715
     5  H   -0.027612   0.353882  -0.035909  -0.017217   0.637572   0.004182
     6  O    0.005636  -0.066389   0.650118   0.006715   0.004182   8.085955
     7  O    0.024506  -0.028726   0.182231   0.000717   0.003548  -0.031947
     8  C    0.182744  -0.023763  -0.013908  -0.009607   0.000744  -0.002997
     9  H    0.366507  -0.063911  -0.001938   0.010317  -0.001234   0.000673
    10  C   -0.038820  -0.017069   0.008357  -0.005408   0.001204   0.000758
    11  H   -0.029316   0.010576  -0.000660   0.000499  -0.000078   0.000012
    12  H   -0.035739  -0.022482  -0.000614   0.007603   0.001559   0.000221
    13  O    0.011028  -0.001683  -0.000048   0.000247   0.000060  -0.000048
    14  O   -0.008463  -0.056836   0.598823   0.005101   0.000602  -0.043864
               7          8          9         10         11         12
     1  N    0.024506   0.182744   0.366507  -0.038820  -0.029316  -0.035739
     2  C   -0.028726  -0.023763  -0.063911  -0.017069   0.010576  -0.022482
     3  P    0.182231  -0.013908  -0.001938   0.008357  -0.000660  -0.000614
     4  H    0.000717  -0.009607   0.010317  -0.005408   0.000499   0.007603
     5  H    0.003548   0.000744  -0.001234   0.001204  -0.000078   0.001559
     6  O   -0.031947  -0.002997   0.000673   0.000758   0.000012   0.000221
     7  O    8.115339  -0.124279   0.001012   0.342627   0.004986   0.005005
     8  C   -0.124279   5.290885  -0.051503   0.281076   0.383259   0.380796
     9  H    0.001012  -0.051503   0.525218  -0.001866  -0.006627   0.009068
    10  C    0.342627   0.281076  -0.001866   4.477071  -0.041340  -0.061937
    11  H    0.004986   0.383259  -0.006627  -0.041340   0.597993  -0.017817
    12  H    0.005005   0.380796   0.009068  -0.061937  -0.017817   0.637223
    13  O   -0.090349  -0.116008   0.000397   0.562745   0.007872   0.008198
    14  O   -0.036023  -0.002950   0.023639   0.005518   0.000166  -0.000069
              13         14
     1  N    0.011028  -0.008463
     2  C   -0.001683  -0.056836
     3  P   -0.000048   0.598823
     4  H    0.000247   0.005101
     5  H    0.000060   0.000602
     6  O   -0.000048  -0.043864
     7  O   -0.090349  -0.036023
     8  C   -0.116008  -0.002950
     9  H    0.000397   0.023639
    10  C    0.562745   0.005518
    11  H    0.007872   0.000166
    12  H    0.008198  -0.000069
    13  O    8.097467  -0.000087
    14  O   -0.000087   8.132095
          Atomic-Atomic Spin Densities.
               1          2          3          4          5          6
     1  N    0.000000   0.000000   0.000000   0.000000   0.000000   0.000000
     2  C    0.000000   0.000000   0.000000   0.000000   0.000000   0.000000
     3  P    0.000000   0.000000   0.000000   0.000000   0.000000   0.000000
     4  H    0.000000   0.000000   0.000000   0.000000   0.000000   0.000000
     5  H    0.000000   0.000000   0.000000   0.000000   0.000000   0.000000
     6  O    0.000000   0.000000   0.000000   0.000000   0.000000   0.000000
     7  O    0.000000   0.000000   0.000000   0.000000   0.000000   0.000000
     8  C    0.000000   0.000000   0.000000   0.000000   0.000000   0.000000
     9  H    0.000000   0.000000   0.000000   0.000000   0.000000   0.000000
    10  C    0.000000   0.000000   0.000000   0.000000   0.000000   0.000000
    11  H    0.000000   0.000000   0.000000   0.000000   0.000000   0.000000
    12  H    0.000000   0.000000   0.000000   0.000000   0.000000   0.000000
    13  O    0.000000   0.000000   0.000000   0.000000   0.000000   0.000000
    14  O    0.000000   0.000000   0.000000   0.000000   0.000000   0.000000
               7          8          9         10         11         12
     1  N    0.000000   0.000000   0.000000   0.000000   0.000000   0.000000
     2  C    0.000000   0.000000   0.000000   0.000000   0.000000   0.000000
     3  P    0.000000   0.000000   0.000000   0.000000   0.000000   0.000000
     4  H    0.000000   0.000000   0.000000   0.000000   0.000000   0.000000
     5  H    0.000000   0.000000   0.000000   0.000000   0.000000   0.000000
     6  O    0.000000   0.000000   0.000000   0.000000   0.000000   0.000000
     7  O    0.000000   0.000000   0.000000   0.000000   0.000000   0.000000
     8  C    0.000000   0.000000   0.000000   0.000000   0.000000   0.000000
     9  H    0.000000   0.000000   0.000000   0.000000   0.000000   0.000000
    10  C    0.000000   0.000000   0.000000   0.000000   0.000000   0.000000
    11  H    0.000000   0.000000   0.000000   0.000000   0.000000   0.000000
    12  H    0.000000   0.000000   0.000000   0.000000   0.000000   0.000000
    13  O    0.000000   0.000000   0.000000   0.000000   0.000000   0.000000
    14  O    0.000000   0.000000   0.000000   0.000000   0.000000   0.000000
              13         14
     1  N    0.000000   0.000000
     2  C    0.000000   0.000000
     3  P    0.000000   0.000000
     4  H    0.000000   0.000000
     5  H    0.000000   0.000000
     6  O    0.000000   0.000000
     7  O    0.000000   0.000000
     8  C    0.000000   0.000000
     9  H    0.000000   0.000000
    10  C    0.000000   0.000000
    11  H    0.000000   0.000000
    12  H    0.000000   0.000000
    13  O    0.000000   0.000000
    14  O    0.000000   0.000000
 Mulliken charges and spin densities:
               1          2
     1  N   -0.344116   0.000000
     2  C   -0.182284   0.000000
     3  P    0.760484   0.000000
     4  H    0.080032   0.000000
     5  H    0.078695   0.000000
     6  O   -0.609025   0.000000
     7  O   -0.368649   0.000000
     8  C   -0.174489   0.000000
     9  H    0.190247   0.000000
    10  C    0.487084   0.000000
    11  H    0.090476   0.000000
    12  H    0.088987   0.000000
    13  O   -0.479790   0.000000
    14  O   -0.617652   0.000000
 Sum of Mulliken charges =  -1.00000   0.00000
 Mulliken charges and spin densities with hydrogens summed into heavy atoms:
               1          2
     1  N   -0.153869   0.000000
     2  C   -0.023557   0.000000
     3  P    0.760484   0.000000
     6  O   -0.609025   0.000000
     7  O   -0.368649   0.000000
     8  C    0.004973   0.000000
    10  C    0.487084   0.000000
    13  O   -0.479790   0.000000
    14  O   -0.617652   0.000000
 Electronic spatial extent (au):  <R**2>=           1216.0068
 Charge=             -1.0000 electrons
 Dipole moment (field-independent basis, Debye):
    X=              2.8834    Y=              4.3881    Z=             -1.2074  Tot=              5.3877
 Quadrupole moment (field-independent basis, Debye-Ang):
   XX=            -84.8151   YY=            -72.3935   ZZ=            -66.3545
   XY=              0.1563   XZ=              0.6821   YZ=             -1.5402
 Traceless Quadrupole moment (field-independent basis, Debye-Ang):
   XX=            -10.2941   YY=              2.1275   ZZ=              8.1666
   XY=              0.1563   XZ=              0.6821   YZ=             -1.5402
 Octapole moment (field-independent basis, Debye-Ang**2):
  XXX=             -2.8454  YYY=            -14.4831  ZZZ=             -6.8986  XYY=            -13.3730
  XXY=             29.1686  XXZ=              3.6065  XZZ=             17.1940  YZZ=              1.6773
  YYZ=              6.0377  XYZ=              6.8618
 Hexadecapole moment (field-independent basis, Debye-Ang**3):
 XXXX=          -1033.9798 YYYY=           -523.1828 ZZZZ=           -229.1037 XXXY=             19.2283
 XXXZ=            -13.6294 YYYX=            -13.6397 YYYZ=              6.1492 ZZZX=             10.9546
 ZZZY=              3.2917 XXYY=           -260.3377 XXZZ=           -202.3644 YYZZ=           -110.3281
 XXYZ=             -9.2652 YYXZ=             -4.3480 ZZXY=             -4.0013
 N-N= 5.827092665072D+02 E-N=-3.103624303645D+03  KE= 8.115657543185D+02
                          Isotropic Fermi Contact Couplings
        Atom                 a.u.       MegaHertz       Gauss      10(-4) cm-1
     1  N(14)              0.00000       0.00000       0.00000       0.00000
     2  C(13)              0.00000       0.00000       0.00000       0.00000
     3  P(31)              0.00000       0.00000       0.00000       0.00000
     4  H(1)               0.00000       0.00000       0.00000       0.00000
     5  H(1)               0.00000       0.00000       0.00000       0.00000
     6  O(17)              0.00000      -0.00000      -0.00000      -0.00000
     7  O(17)              0.00000      -0.00000      -0.00000      -0.00000
     8  C(13)              0.00000       0.00000       0.00000       0.00000
     9  H(1)               0.00000       0.00000       0.00000       0.00000
    10  C(13)              0.00000       0.00000       0.00000       0.00000
    11  H(1)               0.00000       0.00000       0.00000       0.00000
    12  H(1)               0.00000       0.00000       0.00000       0.00000
    13  O(17)              0.00000      -0.00000      -0.00000      -0.00000
    14  O(17)              0.00000      -0.00000      -0.00000      -0.00000
 --------------------------------------------------------
       Center         ----  Spin Dipole Couplings  ----
                      3XX-RR        3YY-RR        3ZZ-RR
 --------------------------------------------------------
     1   Atom        0.000000      0.000000      0.000000
     2   Atom        0.000000      0.000000      0.000000
     3   Atom        0.000000      0.000000      0.000000
     4   Atom        0.000000      0.000000      0.000000
     5   Atom        0.000000      0.000000      0.000000
     6   Atom        0.000000      0.000000      0.000000
     7   Atom        0.000000      0.000000      0.000000
     8   Atom        0.000000      0.000000      0.000000
     9   Atom        0.000000      0.000000      0.000000
    10   Atom        0.000000      0.000000      0.000000
    11   Atom        0.000000      0.000000      0.000000
    12   Atom        0.000000      0.000000      0.000000
    13   Atom        0.000000      0.000000      0.000000
    14   Atom        0.000000      0.000000      0.000000
 --------------------------------------------------------
                        XY            XZ            YZ
 --------------------------------------------------------
     1   Atom        0.000000      0.000000      0.000000
     2   Atom        0.000000      0.000000      0.000000
     3   Atom        0.000000      0.000000      0.000000
     4   Atom        0.000000      0.000000      0.000000
     5   Atom        0.000000      0.000000      0.000000
     6   Atom        0.000000      0.000000      0.000000
     7   Atom        0.000000      0.000000      0.000000
     8   Atom        0.000000      0.000000      0.000000
     9   Atom        0.000000      0.000000      0.000000
    10   Atom        0.000000      0.000000      0.000000
    11   Atom        0.000000      0.000000      0.000000
    12   Atom        0.000000      0.000000      0.000000
    13   Atom        0.000000      0.000000      0.000000
    14   Atom        0.000000      0.000000      0.000000
 --------------------------------------------------------


 ---------------------------------------------------------------------------------
              Anisotropic Spin Dipole Couplings in Principal Axis System
 ---------------------------------------------------------------------------------

       Atom             a.u.   MegaHertz   Gauss  10(-4) cm-1        Axes

              Baa     0.0000     0.000     0.000     0.000  1.0000  0.0000  0.0000
     1 N(14)  Bbb     0.0000     0.000     0.000     0.000 -0.0000  1.0000  0.0000
              Bcc     0.0000     0.000     0.000     0.000  0.0000  0.0000  1.0000
 
              Baa     0.0000     0.000     0.000     0.000  1.0000  0.0000  0.0000
     2 C(13)  Bbb     0.0000     0.000     0.000     0.000 -0.0000  1.0000  0.0000
              Bcc     0.0000     0.000     0.000     0.000  0.0000  0.0000  1.0000
 
              Baa     0.0000     0.000     0.000     0.000  1.0000  0.0000  0.0000
     3 P(31)  Bbb     0.0000     0.000     0.000     0.000 -0.0000  1.0000  0.0000
              Bcc     0.0000     0.000     0.000     0.000  0.0000  0.0000  1.0000
 
              Baa     0.0000     0.000     0.000     0.000  1.0000  0.0000  0.0000
     4 H(1)   Bbb     0.0000     0.000     0.000     0.000 -0.0000  1.0000  0.0000
              Bcc     0.0000     0.000     0.000     0.000  0.0000  0.0000  1.0000
 
              Baa     0.0000     0.000     0.000     0.000  1.0000  0.0000  0.0000
     5 H(1)   Bbb     0.0000     0.000     0.000     0.000 -0.0000  1.0000  0.0000
              Bcc     0.0000     0.000     0.000     0.000  0.0000  0.0000  1.0000
 
              Baa     0.0000    -0.000    -0.000    -0.000  1.0000  0.0000  0.0000
     6 O(17)  Bbb     0.0000    -0.000    -0.000    -0.000 -0.0000  1.0000  0.0000
              Bcc     0.0000    -0.000    -0.000    -0.000  0.0000  0.0000  1.0000
 
              Baa     0.0000    -0.000    -0.000    -0.000  1.0000  0.0000  0.0000
     7 O(17)  Bbb     0.0000    -0.000    -0.000    -0.000 -0.0000  1.0000  0.0000
              Bcc     0.0000    -0.000    -0.000    -0.000  0.0000  0.0000  1.0000
 
              Baa     0.0000     0.000     0.000     0.000  1.0000  0.0000  0.0000
     8 C(13)  Bbb     0.0000     0.000     0.000     0.000 -0.0000  1.0000  0.0000
              Bcc     0.0000     0.000     0.000     0.000  0.0000  0.0000  1.0000
 
              Baa     0.0000     0.000     0.000     0.000  1.0000  0.0000  0.0000
     9 H(1)   Bbb     0.0000     0.000     0.000     0.000 -0.0000  1.0000  0.0000
              Bcc     0.0000     0.000     0.000     0.000  0.0000  0.0000  1.0000
 
              Baa     0.0000     0.000     0.000     0.000  1.0000  0.0000  0.0000
    10 C(13)  Bbb     0.0000     0.000     0.000     0.000 -0.0000  1.0000  0.0000
              Bcc     0.0000     0.000     0.000     0.000  0.0000  0.0000  1.0000
 
              Baa     0.0000     0.000     0.000     0.000  1.0000  0.0000  0.0000
    11 H(1)   Bbb     0.0000     0.000     0.000     0.000 -0.0000  1.0000  0.0000
              Bcc     0.0000     0.000     0.000     0.000  0.0000  0.0000  1.0000
 
              Baa     0.0000     0.000     0.000     0.000  1.0000  0.0000  0.0000
    12 H(1)   Bbb     0.0000     0.000     0.000     0.000 -0.0000  1.0000  0.0000
              Bcc     0.0000     0.000     0.000     0.000  0.0000  0.0000  1.0000
 
              Baa     0.0000    -0.000    -0.000    -0.000  1.0000  0.0000  0.0000
    13 O(17)  Bbb     0.0000    -0.000    -0.000    -0.000 -0.0000  1.0000  0.0000
              Bcc     0.0000    -0.000    -0.000    -0.000  0.0000  0.0000  1.0000
 
              Baa     0.0000    -0.000    -0.000    -0.000  1.0000  0.0000  0.0000
    14 O(17)  Bbb     0.0000    -0.000    -0.000    -0.000 -0.0000  1.0000  0.0000
              Bcc     0.0000    -0.000    -0.000    -0.000  0.0000  0.0000  1.0000
 

 ---------------------------------------------------------------------------------

 ******************************Gaussian NBO Version 3.1******************************
             N A T U R A L   A T O M I C   O R B I T A L   A N D
          N A T U R A L   B O N D   O R B I T A L   A N A L Y S I S
 ******************************Gaussian NBO Version 3.1******************************
       /RESON  / : Allow strongly delocalized NBO set

 Analyzing the SCF density

 Job title: glydehydratedcyclic.CONF1.optfreq                               

 Storage needed:    299055 in NPA (8053062560 available)
 GSVD:  LWork=       31521 too small for GESVD, short by      102249 words or      102249 for optimal perf.


 NATURAL POPULATIONS:  Natural atomic orbital occupancies 
                                                          
   NAO  Atom  No  lang   Type(AO)    Occupancy
 --------------------------------------------
     1    N    1  S      Cor( 1S)     1.99962
     2    N    1  S      Val( 2S)     1.37911
     3    N    1  S      Ryd( 3S)     0.00052
     4    N    1  S      Ryd( 4S)     0.00026
     5    N    1  S      Ryd( 5S)     0.00000
     6    N    1  px     Val( 2p)     1.20347
     7    N    1  px     Ryd( 3p)     0.00316
     8    N    1  px     Ryd( 4p)     0.00015
     9    N    1  py     Val( 2p)     1.68257
    10    N    1  py     Ryd( 3p)     0.00745
    11    N    1  py     Ryd( 4p)     0.00054
    12    N    1  pz     Val( 2p)     1.33444
    13    N    1  pz     Ryd( 3p)     0.00233
    14    N    1  pz     Ryd( 4p)     0.00007
    15    N    1  dxy    Ryd( 3d)     0.00453
    16    N    1  dxy    Ryd( 4d)     0.00016
    17    N    1  dxz    Ryd( 3d)     0.00137
    18    N    1  dxz    Ryd( 4d)     0.00014
    19    N    1  dyz    Ryd( 3d)     0.00292
    20    N    1  dyz    Ryd( 4d)     0.00011
    21    N    1  dx2y2  Ryd( 3d)     0.00218
    22    N    1  dx2y2  Ryd( 4d)     0.00023
    23    N    1  dz2    Ryd( 3d)     0.00326
    24    N    1  dz2    Ryd( 4d)     0.00016
    25    N    1  f(0)   Ryd( 4f)     0.00007
    26    N    1  f(C1)  Ryd( 4f)     0.00004
    27    N    1  f(S1)  Ryd( 4f)     0.00004
    28    N    1  f(C2)  Ryd( 4f)     0.00007
    29    N    1  f(S2)  Ryd( 4f)     0.00002
    30    N    1  f(C3)  Ryd( 4f)     0.00007
    31    N    1  f(S3)  Ryd( 4f)     0.00007

    32    C    2  S      Cor( 1S)     1.99936
    33    C    2  S      Val( 2S)     1.16292
    34    C    2  S      Ryd( 3S)     0.00433
    35    C    2  S      Ryd( 4S)     0.00085
    36    C    2  S      Ryd( 5S)     0.00000
    37    C    2  px     Val( 2p)     1.04352
    38    C    2  px     Ryd( 3p)     0.00306
    39    C    2  px     Ryd( 4p)     0.00029
    40    C    2  py     Val( 2p)     1.25909
    41    C    2  py     Ryd( 3p)     0.00372
    42    C    2  py     Ryd( 4p)     0.00060
    43    C    2  pz     Val( 2p)     1.13621
    44    C    2  pz     Ryd( 3p)     0.00345
    45    C    2  pz     Ryd( 4p)     0.00029
    46    C    2  dxy    Ryd( 3d)     0.00269
    47    C    2  dxy    Ryd( 4d)     0.00028
    48    C    2  dxz    Ryd( 3d)     0.00117
    49    C    2  dxz    Ryd( 4d)     0.00018
    50    C    2  dyz    Ryd( 3d)     0.00247
    51    C    2  dyz    Ryd( 4d)     0.00011
    52    C    2  dx2y2  Ryd( 3d)     0.00173
    53    C    2  dx2y2  Ryd( 4d)     0.00018
    54    C    2  dz2    Ryd( 3d)     0.00186
    55    C    2  dz2    Ryd( 4d)     0.00029
    56    C    2  f(0)   Ryd( 4f)     0.00009
    57    C    2  f(C1)  Ryd( 4f)     0.00005
    58    C    2  f(S1)  Ryd( 4f)     0.00003
    59    C    2  f(C2)  Ryd( 4f)     0.00007
    60    C    2  f(S2)  Ryd( 4f)     0.00004
    61    C    2  f(C3)  Ryd( 4f)     0.00005
    62    C    2  f(S3)  Ryd( 4f)     0.00006

    63    P    3  S      Cor( 1S)     2.00000
    64    P    3  S      Cor( 2S)     1.99922
    65    P    3  S      Val( 3S)     0.78500
    66    P    3  S      Ryd( 4S)     0.00411
    67    P    3  S      Ryd( 5S)     0.00023
    68    P    3  px     Cor( 2p)     1.99979
    69    P    3  px     Val( 3p)     0.56110
    70    P    3  px     Ryd( 4p)     0.00559
    71    P    3  px     Ryd( 5p)     0.00070
    72    P    3  px     Ryd( 6p)     0.00002
    73    P    3  py     Cor( 2p)     1.99982
    74    P    3  py     Val( 3p)     0.62839
    75    P    3  py     Ryd( 4p)     0.00649
    76    P    3  py     Ryd( 5p)     0.00045
    77    P    3  py     Ryd( 6p)     0.00002
    78    P    3  pz     Cor( 2p)     1.99981
    79    P    3  pz     Val( 3p)     0.56035
    80    P    3  pz     Ryd( 4p)     0.01311
    81    P    3  pz     Ryd( 5p)     0.00054
    82    P    3  pz     Ryd( 6p)     0.00001
    83    P    3  dxy    Ryd( 3d)     0.01452
    84    P    3  dxy    Ryd( 4d)     0.00028
    85    P    3  dxz    Ryd( 3d)     0.02619
    86    P    3  dxz    Ryd( 4d)     0.00039
    87    P    3  dyz    Ryd( 3d)     0.02826
    88    P    3  dyz    Ryd( 4d)     0.00016
    89    P    3  dx2y2  Ryd( 3d)     0.01884
    90    P    3  dx2y2  Ryd( 4d)     0.00012
    91    P    3  dz2    Ryd( 3d)     0.02747
    92    P    3  dz2    Ryd( 4d)     0.00039
    93    P    3  f(0)   Ryd( 4f)     0.00028
    94    P    3  f(C1)  Ryd( 4f)     0.00034
    95    P    3  f(S1)  Ryd( 4f)     0.00037
    96    P    3  f(C2)  Ryd( 4f)     0.00016
    97    P    3  f(S2)  Ryd( 4f)     0.00027
    98    P    3  f(C3)  Ryd( 4f)     0.00032
    99    P    3  f(S3)  Ryd( 4f)     0.00011

   100    H    4  S      Val( 1S)     0.80635
   101    H    4  S      Ryd( 2S)     0.00118
   102    H    4  S      Ryd( 3S)     0.00015
   103    H    4  px     Ryd( 2p)     0.00014
   104    H    4  py     Ryd( 2p)     0.00014
   105    H    4  pz     Ryd( 2p)     0.00042

   106    H    5  S      Val( 1S)     0.79405
   107    H    5  S      Ryd( 2S)     0.00063
   108    H    5  S      Ryd( 3S)     0.00012
   109    H    5  px     Ryd( 2p)     0.00027
   110    H    5  py     Ryd( 2p)     0.00023
   111    H    5  pz     Ryd( 2p)     0.00012

   112    O    6  S      Cor( 1S)     1.99981
   113    O    6  S      Val( 2S)     1.81691
   114    O    6  S      Ryd( 3S)     0.00018
   115    O    6  S      Ryd( 4S)     0.00011
   116    O    6  S      Ryd( 5S)     0.00000
   117    O    6  px     Val( 2p)     1.74563
   118    O    6  px     Ryd( 3p)     0.00049
   119    O    6  px     Ryd( 4p)     0.00008
   120    O    6  py     Val( 2p)     1.77420
   121    O    6  py     Ryd( 3p)     0.00045
   122    O    6  py     Ryd( 4p)     0.00006
   123    O    6  pz     Val( 2p)     1.76370
   124    O    6  pz     Ryd( 3p)     0.00057
   125    O    6  pz     Ryd( 4p)     0.00007
   126    O    6  dxy    Ryd( 3d)     0.00516
   127    O    6  dxy    Ryd( 4d)     0.00001
   128    O    6  dxz    Ryd( 3d)     0.00639
   129    O    6  dxz    Ryd( 4d)     0.00001
   130    O    6  dyz    Ryd( 3d)     0.00497
   131    O    6  dyz    Ryd( 4d)     0.00000
   132    O    6  dx2y2  Ryd( 3d)     0.00570
   133    O    6  dx2y2  Ryd( 4d)     0.00001
   134    O    6  dz2    Ryd( 3d)     0.00533
   135    O    6  dz2    Ryd( 4d)     0.00001
   136    O    6  f(0)   Ryd( 4f)     0.00003
   137    O    6  f(C1)  Ryd( 4f)     0.00009
   138    O    6  f(S1)  Ryd( 4f)     0.00005
   139    O    6  f(C2)  Ryd( 4f)     0.00008
   140    O    6  f(S2)  Ryd( 4f)     0.00006
   141    O    6  f(C3)  Ryd( 4f)     0.00005
   142    O    6  f(S3)  Ryd( 4f)     0.00004

   143    O    7  S      Cor( 1S)     1.99970
   144    O    7  S      Val( 2S)     1.69379
   145    O    7  S      Ryd( 3S)     0.00338
   146    O    7  S      Ryd( 4S)     0.00016
   147    O    7  S      Ryd( 5S)     0.00000
   148    O    7  px     Val( 2p)     1.47397
   149    O    7  px     Ryd( 3p)     0.00159
   150    O    7  px     Ryd( 4p)     0.00019
   151    O    7  py     Val( 2p)     1.80036
   152    O    7  py     Ryd( 3p)     0.00229
   153    O    7  py     Ryd( 4p)     0.00021
   154    O    7  pz     Val( 2p)     1.76185
   155    O    7  pz     Ryd( 3p)     0.00171
   156    O    7  pz     Ryd( 4p)     0.00007
   157    O    7  dxy    Ryd( 3d)     0.00553
   158    O    7  dxy    Ryd( 4d)     0.00004
   159    O    7  dxz    Ryd( 3d)     0.00119
   160    O    7  dxz    Ryd( 4d)     0.00004
   161    O    7  dyz    Ryd( 3d)     0.00386
   162    O    7  dyz    Ryd( 4d)     0.00003
   163    O    7  dx2y2  Ryd( 3d)     0.00338
   164    O    7  dx2y2  Ryd( 4d)     0.00004
   165    O    7  dz2    Ryd( 3d)     0.00267
   166    O    7  dz2    Ryd( 4d)     0.00002
   167    O    7  f(0)   Ryd( 4f)     0.00017
   168    O    7  f(C1)  Ryd( 4f)     0.00007
   169    O    7  f(S1)  Ryd( 4f)     0.00004
   170    O    7  f(C2)  Ryd( 4f)     0.00011
   171    O    7  f(S2)  Ryd( 4f)     0.00003
   172    O    7  f(C3)  Ryd( 4f)     0.00010
   173    O    7  f(S3)  Ryd( 4f)     0.00012

   174    C    8  S      Cor( 1S)     1.99925
   175    C    8  S      Val( 2S)     1.06686
   176    C    8  S      Ryd( 3S)     0.00270
   177    C    8  S      Ryd( 4S)     0.00026
   178    C    8  S      Ryd( 5S)     0.00000
   179    C    8  px     Val( 2p)     1.03182
   180    C    8  px     Ryd( 3p)     0.00356
   181    C    8  px     Ryd( 4p)     0.00027
   182    C    8  py     Val( 2p)     1.01536
   183    C    8  py     Ryd( 3p)     0.00287
   184    C    8  py     Ryd( 4p)     0.00035
   185    C    8  pz     Val( 2p)     1.19604
   186    C    8  pz     Ryd( 3p)     0.00108
   187    C    8  pz     Ryd( 4p)     0.00016
   188    C    8  dxy    Ryd( 3d)     0.00153
   189    C    8  dxy    Ryd( 4d)     0.00019
   190    C    8  dxz    Ryd( 3d)     0.00109
   191    C    8  dxz    Ryd( 4d)     0.00031
   192    C    8  dyz    Ryd( 3d)     0.00016
   193    C    8  dyz    Ryd( 4d)     0.00010
   194    C    8  dx2y2  Ryd( 3d)     0.00312
   195    C    8  dx2y2  Ryd( 4d)     0.00021
   196    C    8  dz2    Ryd( 3d)     0.00111
   197    C    8  dz2    Ryd( 4d)     0.00021
   198    C    8  f(0)   Ryd( 4f)     0.00004
   199    C    8  f(C1)  Ryd( 4f)     0.00009
   200    C    8  f(S1)  Ryd( 4f)     0.00008
   201    C    8  f(C2)  Ryd( 4f)     0.00004
   202    C    8  f(S2)  Ryd( 4f)     0.00003
   203    C    8  f(C3)  Ryd( 4f)     0.00010
   204    C    8  f(S3)  Ryd( 4f)     0.00018

   205    H    9  S      Val( 1S)     0.62922
   206    H    9  S      Ryd( 2S)     0.00179
   207    H    9  S      Ryd( 3S)     0.00019
   208    H    9  px     Ryd( 2p)     0.00020
   209    H    9  py     Ryd( 2p)     0.00031
   210    H    9  pz     Ryd( 2p)     0.00015

   211    C   10  S      Cor( 1S)     1.99943
   212    C   10  S      Val( 2S)     0.81398
   213    C   10  S      Ryd( 3S)     0.00654
   214    C   10  S      Ryd( 4S)     0.00025
   215    C   10  S      Ryd( 5S)     0.00001
   216    C   10  px     Val( 2p)     0.74054
   217    C   10  px     Ryd( 3p)     0.01162
   218    C   10  px     Ryd( 4p)     0.00021
   219    C   10  py     Val( 2p)     0.89667
   220    C   10  py     Ryd( 3p)     0.00947
   221    C   10  py     Ryd( 4p)     0.00028
   222    C   10  pz     Val( 2p)     0.72780
   223    C   10  pz     Ryd( 3p)     0.00109
   224    C   10  pz     Ryd( 4p)     0.00043
   225    C   10  dxy    Ryd( 3d)     0.00073
   226    C   10  dxy    Ryd( 4d)     0.00018
   227    C   10  dxz    Ryd( 3d)     0.00181
   228    C   10  dxz    Ryd( 4d)     0.00025
   229    C   10  dyz    Ryd( 3d)     0.00063
   230    C   10  dyz    Ryd( 4d)     0.00006
   231    C   10  dx2y2  Ryd( 3d)     0.00152
   232    C   10  dx2y2  Ryd( 4d)     0.00023
   233    C   10  dz2    Ryd( 4d)     0.00010
   234    C   10  dz2    Ryd( 3d)     0.00069
   235    C   10  f(0)   Ryd( 4f)     0.00007
   236    C   10  f(C1)  Ryd( 4f)     0.00002
   237    C   10  f(S1)  Ryd( 4f)     0.00005
   238    C   10  f(C2)  Ryd( 4f)     0.00001
   239    C   10  f(S2)  Ryd( 4f)     0.00003
   240    C   10  f(C3)  Ryd( 4f)     0.00006
   241    C   10  f(S3)  Ryd( 4f)     0.00013

   242    H   11  S      Val( 1S)     0.79175
   243    H   11  S      Ryd( 2S)     0.00053
   244    H   11  S      Ryd( 3S)     0.00011
   245    H   11  px     Ryd( 2p)     0.00036
   246    H   11  py     Ryd( 2p)     0.00015
   247    H   11  pz     Ryd( 2p)     0.00020

   248    H   12  S      Val( 1S)     0.80497
   249    H   12  S      Ryd( 2S)     0.00097
   250    H   12  S      Ryd( 3S)     0.00012
   251    H   12  px     Ryd( 2p)     0.00023
   252    H   12  py     Ryd( 2p)     0.00014
   253    H   12  pz     Ryd( 2p)     0.00038

   254    O   13  S      Cor( 1S)     1.99975
   255    O   13  S      Val( 2S)     1.71287
   256    O   13  S      Ryd( 3S)     0.00054
   257    O   13  S      Ryd( 4S)     0.00013
   258    O   13  S      Ryd( 5S)     0.00000
   259    O   13  px     Val( 2p)     1.65303
   260    O   13  px     Ryd( 3p)     0.00168
   261    O   13  px     Ryd( 4p)     0.00018
   262    O   13  py     Val( 2p)     1.74629
   263    O   13  py     Ryd( 3p)     0.00203
   264    O   13  py     Ryd( 4p)     0.00011
   265    O   13  pz     Val( 2p)     1.49795
   266    O   13  pz     Ryd( 3p)     0.00097
   267    O   13  pz     Ryd( 4p)     0.00003
   268    O   13  dxy    Ryd( 3d)     0.00641
   269    O   13  dxy    Ryd( 4d)     0.00001
   270    O   13  dxz    Ryd( 3d)     0.00378
   271    O   13  dxz    Ryd( 4d)     0.00002
   272    O   13  dyz    Ryd( 3d)     0.00263
   273    O   13  dyz    Ryd( 4d)     0.00003
   274    O   13  dx2y2  Ryd( 3d)     0.00558
   275    O   13  dx2y2  Ryd( 4d)     0.00004
   276    O   13  dz2    Ryd( 3d)     0.00205
   277    O   13  dz2    Ryd( 4d)     0.00001
   278    O   13  f(0)   Ryd( 4f)     0.00010
   279    O   13  f(C1)  Ryd( 4f)     0.00002
   280    O   13  f(S1)  Ryd( 4f)     0.00002
   281    O   13  f(C2)  Ryd( 4f)     0.00003
   282    O   13  f(S2)  Ryd( 4f)     0.00023
   283    O   13  f(C3)  Ryd( 4f)     0.00033
   284    O   13  f(S3)  Ryd( 4f)     0.00013

   285    O   14  S      Cor( 1S)     1.99981
   286    O   14  S      Val( 2S)     1.82168
   287    O   14  S      Ryd( 3S)     0.00019
   288    O   14  S      Ryd( 4S)     0.00013
   289    O   14  S      Ryd( 5S)     0.00000
   290    O   14  px     Val( 2p)     1.81712
   291    O   14  px     Ryd( 3p)     0.00054
   292    O   14  px     Ryd( 4p)     0.00004
   293    O   14  py     Val( 2p)     1.81757
   294    O   14  py     Ryd( 3p)     0.00084
   295    O   14  py     Ryd( 4p)     0.00003
   296    O   14  pz     Val( 2p)     1.66891
   297    O   14  pz     Ryd( 3p)     0.00067
   298    O   14  pz     Ryd( 4p)     0.00016
   299    O   14  dxy    Ryd( 3d)     0.00043
   300    O   14  dxy    Ryd( 4d)     0.00001
   301    O   14  dxz    Ryd( 3d)     0.00790
   302    O   14  dxz    Ryd( 4d)     0.00001
   303    O   14  dyz    Ryd( 3d)     0.00790
   304    O   14  dyz    Ryd( 4d)     0.00001
   305    O   14  dx2y2  Ryd( 3d)     0.00054
   306    O   14  dx2y2  Ryd( 4d)     0.00000
   307    O   14  dz2    Ryd( 3d)     0.01012
   308    O   14  dz2    Ryd( 4d)     0.00001
   309    O   14  f(0)   Ryd( 4f)     0.00010
   310    O   14  f(C1)  Ryd( 4f)     0.00013
   311    O   14  f(S1)  Ryd( 4f)     0.00012
   312    O   14  f(C2)  Ryd( 4f)     0.00002
   313    O   14  f(S2)  Ryd( 4f)     0.00001
   314    O   14  f(C3)  Ryd( 4f)     0.00000
   315    O   14  f(S3)  Ryd( 4f)     0.00000


 Summary of Natural Population Analysis:                  
                                                          
                                       Natural Population 
                Natural  -----------------------------------------------
    Atom  No    Charge         Core      Valence    Rydberg      Total
 -----------------------------------------------------------------------
      N    1   -0.62914      1.99962     5.59959    0.02992     7.62914
      C    2   -0.62906      1.99936     4.60173    0.02797     6.62906
      P    3    2.31676      9.99865     2.53485    0.14974    12.68324
      H    4    0.19162      0.00000     0.80635    0.00203     0.80838
      H    5    0.20459      0.00000     0.79405    0.00136     0.79541
      O    6   -1.13024      1.99981     7.10044    0.03000     9.13024
      O    7   -0.75673      1.99970     6.72997    0.02706     8.75673
      C    8   -0.32918      1.99925     4.31008    0.01985     6.32918
      H    9    0.36813      0.00000     0.62922    0.00265     0.63187
      C   10    0.78513      1.99943     3.17899    0.03645     5.21487
      H   11    0.20691      0.00000     0.79175    0.00134     0.79309
      H   12    0.19319      0.00000     0.80497    0.00184     0.80681
      O   13   -0.63699      1.99975     6.61015    0.02708     8.63699
      O   14   -1.15500      1.99981     7.12529    0.02990     9.15500
 =======================================================================
   * Total *   -1.00000     25.99538    51.61743    0.38719    78.00000

                                 Natural Population      
 --------------------------------------------------------
   Core                      25.99538 ( 99.9822% of  26)
   Valence                   51.61743 ( 99.2643% of  52)
   Natural Minimal Basis     77.61281 ( 99.5036% of  78)
   Natural Rydberg Basis      0.38719 (  0.4964% of  78)
 --------------------------------------------------------

    Atom  No          Natural Electron Configuration
 ----------------------------------------------------------------------------
      N    1      [core]2S( 1.38)2p( 4.22)3p( 0.01)3d( 0.01)
      C    2      [core]2S( 1.16)2p( 3.44)3p( 0.01)3d( 0.01)
      P    3      [core]3S( 0.79)3p( 1.75)3d( 0.12)4p( 0.03)
      H    4            1S( 0.81)
      H    5            1S( 0.79)
      O    6      [core]2S( 1.82)2p( 5.28)3d( 0.03)
      O    7      [core]2S( 1.69)2p( 5.04)3p( 0.01)3d( 0.02)
      C    8      [core]2S( 1.07)2p( 3.24)3p( 0.01)3d( 0.01)
      H    9            1S( 0.63)
      C   10      [core]2S( 0.81)2p( 2.37)3S( 0.01)3p( 0.02)3d( 0.01)
      H   11            1S( 0.79)
      H   12            1S( 0.80)
      O   13      [core]2S( 1.71)2p( 4.90)3d( 0.02)
      O   14      [core]2S( 1.82)2p( 5.30)3d( 0.03)


 ***************************************************
 *******         Alpha spin orbitals         *******
 ***************************************************


 NATURAL POPULATIONS:  Natural atomic orbital occupancies 
                                                          
   NAO  Atom  No  lang   Type(AO)    Occupancy      Energy
 ----------------------------------------------------------
     1    N    1  S      Cor( 1S)     0.99981     -14.08338
     2    N    1  S      Val( 2S)     0.68955      -0.45776
     3    N    1  S      Ryd( 3S)     0.00026       2.04096
     4    N    1  S      Ryd( 4S)     0.00013       3.22239
     5    N    1  S      Ryd( 5S)     0.00000      30.75055
     6    N    1  px     Val( 2p)     0.60173      -0.05726
     7    N    1  px     Ryd( 3p)     0.00158       0.92111
     8    N    1  px     Ryd( 4p)     0.00008       3.19724
     9    N    1  py     Val( 2p)     0.84129      -0.11190
    10    N    1  py     Ryd( 3p)     0.00372       0.78955
    11    N    1  py     Ryd( 4p)     0.00027       2.84361
    12    N    1  pz     Val( 2p)     0.66722      -0.07188
    13    N    1  pz     Ryd( 3p)     0.00117       0.87667
    14    N    1  pz     Ryd( 4p)     0.00004       2.93858
    15    N    1  dxy    Ryd( 3d)     0.00227       1.69340
    16    N    1  dxy    Ryd( 4d)     0.00008       5.01715
    17    N    1  dxz    Ryd( 3d)     0.00068       1.63783
    18    N    1  dxz    Ryd( 4d)     0.00007       4.95416
    19    N    1  dyz    Ryd( 3d)     0.00146       1.49100
    20    N    1  dyz    Ryd( 4d)     0.00005       4.83547
    21    N    1  dx2y2  Ryd( 3d)     0.00109       1.65188
    22    N    1  dx2y2  Ryd( 4d)     0.00011       4.94090
    23    N    1  dz2    Ryd( 3d)     0.00163       1.64046
    24    N    1  dz2    Ryd( 4d)     0.00008       4.98005
    25    N    1  f(0)   Ryd( 4f)     0.00004       4.83443
    26    N    1  f(C1)  Ryd( 4f)     0.00002       4.82075
    27    N    1  f(S1)  Ryd( 4f)     0.00002       4.48055
    28    N    1  f(C2)  Ryd( 4f)     0.00003       4.50519
    29    N    1  f(S2)  Ryd( 4f)     0.00001       4.66079
    30    N    1  f(C3)  Ryd( 4f)     0.00003       4.71362
    31    N    1  f(S3)  Ryd( 4f)     0.00004       4.73166

    32    C    2  S      Cor( 1S)     0.99968     -10.00574
    33    C    2  S      Val( 2S)     0.58146      -0.22097
    34    C    2  S      Ryd( 3S)     0.00217       1.76995
    35    C    2  S      Ryd( 4S)     0.00042       2.18986
    36    C    2  S      Ryd( 5S)     0.00000      21.19628
    37    C    2  px     Val( 2p)     0.52176       0.00725
    38    C    2  px     Ryd( 3p)     0.00153       1.05434
    39    C    2  px     Ryd( 4p)     0.00015       1.74059
    40    C    2  py     Val( 2p)     0.62954      -0.03042
    41    C    2  py     Ryd( 3p)     0.00186       1.09011
    42    C    2  py     Ryd( 4p)     0.00030       1.62543
    43    C    2  pz     Val( 2p)     0.56810       0.00009
    44    C    2  pz     Ryd( 3p)     0.00172       0.99153
    45    C    2  pz     Ryd( 4p)     0.00015       1.63346
    46    C    2  dxy    Ryd( 3d)     0.00135       1.42486
    47    C    2  dxy    Ryd( 4d)     0.00014       3.64190
    48    C    2  dxz    Ryd( 3d)     0.00059       1.37407
    49    C    2  dxz    Ryd( 4d)     0.00009       3.53370
    50    C    2  dyz    Ryd( 3d)     0.00124       1.38959
    51    C    2  dyz    Ryd( 4d)     0.00006       3.30540
    52    C    2  dx2y2  Ryd( 3d)     0.00087       1.43840
    53    C    2  dx2y2  Ryd( 4d)     0.00009       3.39757
    54    C    2  dz2    Ryd( 3d)     0.00093       1.33612
    55    C    2  dz2    Ryd( 4d)     0.00015       3.51555
    56    C    2  f(0)   Ryd( 4f)     0.00005       3.62298
    57    C    2  f(C1)  Ryd( 4f)     0.00003       3.76492
    58    C    2  f(S1)  Ryd( 4f)     0.00002       3.44779
    59    C    2  f(C2)  Ryd( 4f)     0.00004       3.60843
    60    C    2  f(S2)  Ryd( 4f)     0.00002       3.53412
    61    C    2  f(C3)  Ryd( 4f)     0.00002       3.65676
    62    C    2  f(S3)  Ryd( 4f)     0.00003       3.56851

    63    P    3  S      Cor( 1S)     1.00000     -76.12156
    64    P    3  S      Cor( 2S)     0.99961      -7.42400
    65    P    3  S      Val( 3S)     0.39250      -0.08188
    66    P    3  S      Ryd( 4S)     0.00205       1.55677
    67    P    3  S      Ryd( 5S)     0.00011      11.22515
    68    P    3  px     Cor( 2p)     0.99990      -4.65929
    69    P    3  px     Val( 3p)     0.28055       0.15191
    70    P    3  px     Ryd( 4p)     0.00279       1.30013
    71    P    3  px     Ryd( 5p)     0.00035       1.34009
    72    P    3  px     Ryd( 6p)     0.00001       7.23139
    73    P    3  py     Cor( 2p)     0.99991      -4.65789
    74    P    3  py     Val( 3p)     0.31420       0.15161
    75    P    3  py     Ryd( 4p)     0.00324       1.23730
    76    P    3  py     Ryd( 5p)     0.00022       1.33160
    77    P    3  py     Ryd( 6p)     0.00001       7.19648
    78    P    3  pz     Cor( 2p)     0.99991      -4.65141
    79    P    3  pz     Val( 3p)     0.28018       0.20919
    80    P    3  pz     Ryd( 4p)     0.00656       1.22378
    81    P    3  pz     Ryd( 5p)     0.00027       1.63631
    82    P    3  pz     Ryd( 6p)     0.00001       7.48316
    83    P    3  dxy    Ryd( 3d)     0.00726       1.19924
    84    P    3  dxy    Ryd( 4d)     0.00014       2.18530
    85    P    3  dxz    Ryd( 3d)     0.01310       1.15934
    86    P    3  dxz    Ryd( 4d)     0.00019       2.13166
    87    P    3  dyz    Ryd( 3d)     0.01413       1.21500
    88    P    3  dyz    Ryd( 4d)     0.00008       2.18599
    89    P    3  dx2y2  Ryd( 3d)     0.00942       1.12025
    90    P    3  dx2y2  Ryd( 4d)     0.00006       2.08703
    91    P    3  dz2    Ryd( 3d)     0.01374       1.29067
    92    P    3  dz2    Ryd( 4d)     0.00020       2.18602
    93    P    3  f(0)   Ryd( 4f)     0.00014       2.97430
    94    P    3  f(C1)  Ryd( 4f)     0.00017       2.93634
    95    P    3  f(S1)  Ryd( 4f)     0.00018       2.72071
    96    P    3  f(C2)  Ryd( 4f)     0.00008       2.43695
    97    P    3  f(S2)  Ryd( 4f)     0.00013       2.58175
    98    P    3  f(C3)  Ryd( 4f)     0.00016       2.47783
    99    P    3  f(S3)  Ryd( 4f)     0.00006       2.58019

   100    H    4  S      Val( 1S)     0.40318       0.10860
   101    H    4  S      Ryd( 2S)     0.00059       0.72370
   102    H    4  S      Ryd( 3S)     0.00008       1.77752
   103    H    4  px     Ryd( 2p)     0.00007       2.47922
   104    H    4  py     Ryd( 2p)     0.00007       2.38826
   105    H    4  pz     Ryd( 2p)     0.00021       3.10288

   106    H    5  S      Val( 1S)     0.39703       0.11671
   107    H    5  S      Ryd( 2S)     0.00031       0.78082
   108    H    5  S      Ryd( 3S)     0.00006       1.71127
   109    H    5  px     Ryd( 2p)     0.00014       2.82153
   110    H    5  py     Ryd( 2p)     0.00011       2.73764
   111    H    5  pz     Ryd( 2p)     0.00006       2.36383

   112    O    6  S      Cor( 1S)     0.99990     -18.72720
   113    O    6  S      Val( 2S)     0.90845      -0.84308
   114    O    6  S      Ryd( 3S)     0.00009       3.18445
   115    O    6  S      Ryd( 4S)     0.00005       3.81497
   116    O    6  S      Ryd( 5S)     0.00000      42.28942
   117    O    6  px     Val( 2p)     0.87281      -0.12832
   118    O    6  px     Ryd( 3p)     0.00024       0.76171
   119    O    6  px     Ryd( 4p)     0.00004       3.45690
   120    O    6  py     Val( 2p)     0.88710      -0.11867
   121    O    6  py     Ryd( 3p)     0.00023       0.78283
   122    O    6  py     Ryd( 4p)     0.00003       3.27226
   123    O    6  pz     Val( 2p)     0.88185      -0.12706
   124    O    6  pz     Ryd( 3p)     0.00029       0.76849
   125    O    6  pz     Ryd( 4p)     0.00004       3.37783
   126    O    6  dxy    Ryd( 3d)     0.00258       1.87653
   127    O    6  dxy    Ryd( 4d)     0.00000       6.63632
   128    O    6  dxz    Ryd( 3d)     0.00319       1.94195
   129    O    6  dxz    Ryd( 4d)     0.00000       6.65348
   130    O    6  dyz    Ryd( 3d)     0.00249       1.89139
   131    O    6  dyz    Ryd( 4d)     0.00000       6.63485
   132    O    6  dx2y2  Ryd( 3d)     0.00285       1.82269
   133    O    6  dx2y2  Ryd( 4d)     0.00001       6.63842
   134    O    6  dz2    Ryd( 3d)     0.00267       1.87474
   135    O    6  dz2    Ryd( 4d)     0.00000       6.65508
   136    O    6  f(0)   Ryd( 4f)     0.00002       5.52598
   137    O    6  f(C1)  Ryd( 4f)     0.00004       5.56868
   138    O    6  f(S1)  Ryd( 4f)     0.00002       5.49801
   139    O    6  f(C2)  Ryd( 4f)     0.00004       5.51870
   140    O    6  f(S2)  Ryd( 4f)     0.00003       5.69879
   141    O    6  f(C3)  Ryd( 4f)     0.00002       5.48897
   142    O    6  f(S3)  Ryd( 4f)     0.00002       5.52714

   143    O    7  S      Cor( 1S)     0.99985     -18.87380
   144    O    7  S      Val( 2S)     0.84690      -0.80841
   145    O    7  S      Ryd( 3S)     0.00169       1.81479
   146    O    7  S      Ryd( 4S)     0.00008       4.63133
   147    O    7  S      Ryd( 5S)     0.00000      42.51929
   148    O    7  px     Val( 2p)     0.73699      -0.19824
   149    O    7  px     Ryd( 3p)     0.00079       1.49822
   150    O    7  px     Ryd( 4p)     0.00010       3.89356
   151    O    7  py     Val( 2p)     0.90018      -0.19707
   152    O    7  py     Ryd( 3p)     0.00115       1.05821
   153    O    7  py     Ryd( 4p)     0.00011       3.30816
   154    O    7  pz     Val( 2p)     0.88092      -0.18642
   155    O    7  pz     Ryd( 3p)     0.00085       0.90327
   156    O    7  pz     Ryd( 4p)     0.00004       2.93515
   157    O    7  dxy    Ryd( 3d)     0.00276       2.18584
   158    O    7  dxy    Ryd( 4d)     0.00002       6.78041
   159    O    7  dxz    Ryd( 3d)     0.00060       1.77919
   160    O    7  dxz    Ryd( 4d)     0.00002       6.58131
   161    O    7  dyz    Ryd( 3d)     0.00193       1.68743
   162    O    7  dyz    Ryd( 4d)     0.00001       6.51851
   163    O    7  dx2y2  Ryd( 3d)     0.00169       2.05392
   164    O    7  dx2y2  Ryd( 4d)     0.00002       6.73795
   165    O    7  dz2    Ryd( 3d)     0.00134       1.93028
   166    O    7  dz2    Ryd( 4d)     0.00001       6.64663
   167    O    7  f(0)   Ryd( 4f)     0.00008       5.47882
   168    O    7  f(C1)  Ryd( 4f)     0.00003       5.63328
   169    O    7  f(S1)  Ryd( 4f)     0.00002       5.38868
   170    O    7  f(C2)  Ryd( 4f)     0.00006       5.49119
   171    O    7  f(S2)  Ryd( 4f)     0.00001       5.52411
   172    O    7  f(C3)  Ryd( 4f)     0.00005       5.84408
   173    O    7  f(S3)  Ryd( 4f)     0.00006       5.85204

   174    C    8  S      Cor( 1S)     0.99963     -10.02163
   175    C    8  S      Val( 2S)     0.53343      -0.18293
   176    C    8  S      Ryd( 3S)     0.00135       1.30873
   177    C    8  S      Ryd( 4S)     0.00013       2.41600
   178    C    8  S      Ryd( 5S)     0.00000      21.18454
   179    C    8  px     Val( 2p)     0.51591       0.00836
   180    C    8  px     Ryd( 3p)     0.00178       1.04675
   181    C    8  px     Ryd( 4p)     0.00013       1.48418
   182    C    8  py     Val( 2p)     0.50768       0.01426
   183    C    8  py     Ryd( 3p)     0.00144       0.91214
   184    C    8  py     Ryd( 4p)     0.00018       1.75069
   185    C    8  pz     Val( 2p)     0.59802      -0.01081
   186    C    8  pz     Ryd( 3p)     0.00054       1.04280
   187    C    8  pz     Ryd( 4p)     0.00008       1.60322
   188    C    8  dxy    Ryd( 3d)     0.00076       1.69509
   189    C    8  dxy    Ryd( 4d)     0.00009       3.61140
   190    C    8  dxz    Ryd( 3d)     0.00055       1.51514
   191    C    8  dxz    Ryd( 4d)     0.00015       3.30123
   192    C    8  dyz    Ryd( 3d)     0.00008       1.36693
   193    C    8  dyz    Ryd( 4d)     0.00005       3.01125
   194    C    8  dx2y2  Ryd( 3d)     0.00156       1.65121
   195    C    8  dx2y2  Ryd( 4d)     0.00011       3.44151
   196    C    8  dz2    Ryd( 3d)     0.00056       1.52676
   197    C    8  dz2    Ryd( 4d)     0.00010       3.34009
   198    C    8  f(0)   Ryd( 4f)     0.00002       3.55348
   199    C    8  f(C1)  Ryd( 4f)     0.00004       3.67516
   200    C    8  f(S1)  Ryd( 4f)     0.00004       3.58134
   201    C    8  f(C2)  Ryd( 4f)     0.00002       3.63453
   202    C    8  f(S2)  Ryd( 4f)     0.00002       3.60286
   203    C    8  f(C3)  Ryd( 4f)     0.00005       3.85890
   204    C    8  f(S3)  Ryd( 4f)     0.00009       3.86106

   205    H    9  S      Val( 1S)     0.31461       0.20103
   206    H    9  S      Ryd( 2S)     0.00090       1.04925
   207    H    9  S      Ryd( 3S)     0.00010       1.81861
   208    H    9  px     Ryd( 2p)     0.00010       2.56102
   209    H    9  py     Ryd( 2p)     0.00016       2.44616
   210    H    9  pz     Ryd( 2p)     0.00007       3.17930

   211    C   10  S      Cor( 1S)     0.99972     -10.11464
   212    C   10  S      Val( 2S)     0.40699      -0.03751
   213    C   10  S      Ryd( 4S)     0.00327       1.35907
   214    C   10  S      Ryd( 3S)     0.00012       1.19874
[...]
 ! D6    D(9,1,2,5)             70.7248         -DE/DX =    0.0                 !
 ! D7    D(2,1,8,10)           -46.2728         -DE/DX =    0.0                 !
 ! D8    D(2,1,8,11)          -170.3245         -DE/DX =    0.0                 !
 ! D9    D(2,1,8,12)            74.199          -DE/DX =    0.0                 !
 ! D10   D(9,1,8,10)            69.3016         -DE/DX =    0.0                 !
 ! D11   D(9,1,8,11)           -54.7502         -DE/DX =    0.0                 !
 ! D12   D(9,1,8,12)          -170.2267         -DE/DX =    0.0                 !
 ! D13   D(1,2,3,6)           -166.0357         -DE/DX =    0.0                 !
 ! D14   D(1,2,3,7)            -56.2104         -DE/DX =    0.0                 !
 ! D15   D(1,2,3,14)            52.4127         -DE/DX =    0.0001              !
 ! D16   D(4,2,3,6)            -45.0169         -DE/DX =   -0.0001              !
 ! D17   D(4,2,3,7)             64.8084         -DE/DX =    0.0                 !
 ! D18   D(4,2,3,14)           173.4314         -DE/DX =    0.0                 !
 ! D19   D(5,2,3,6)             73.9038         -DE/DX =    0.0                 !
 ! D20   D(5,2,3,7)           -176.2708         -DE/DX =    0.0                 !
 ! D21   D(5,2,3,14)           -67.6478         -DE/DX =    0.0001              !
 ! D22   D(2,3,7,10)            31.3638         -DE/DX =    0.0                 !
 ! D23   D(6,3,7,10)           147.4683         -DE/DX =    0.0                 !
 ! D24   D(14,3,7,10)          -78.1657         -DE/DX =    0.0001              !
 ! D25   D(3,7,10,8)           -13.2525         -DE/DX =    0.0                 !
 ! D26   D(3,7,10,13)          170.728          -DE/DX =    0.0                 !
 ! D27   D(1,8,10,7)            15.9907         -DE/DX =    0.0                 !
 ! D28   D(1,8,10,13)         -167.8691         -DE/DX =    0.0                 !
 ! D29   D(11,8,10,7)          141.7958         -DE/DX =    0.0                 !
 ! D30   D(11,8,10,13)         -42.064          -DE/DX =    0.0                 !
 ! D31   D(12,8,10,7)         -106.5378         -DE/DX =    0.0                 !
 ! D32   D(12,8,10,13)          69.6024         -DE/DX =    0.0                 !
 --------------------------------------------------------------------------------
 GradGradGradGradGradGradGradGradGradGradGradGradGradGradGradGradGradGrad


 ----------------------------------------------------------------------

 Electric dipole moment (input orientation):
 (Debye = 10**-18 statcoulomb cm , SI units = C m)
                  (au)            (Debye)         (10**-30 SI)
   Tot        0.209056D+01      0.531368D+01      0.177245D+02
   x         -0.118179D+01     -0.300382D+01     -0.100197D+02
   y         -0.166802D+01     -0.423968D+01     -0.141421D+02
   z         -0.437639D+00     -0.111237D+01     -0.371046D+01

 Dipole polarizability, Alpha (input orientation).
 (esu units = cm**3 , SI units = C**2 m**2 J**-1)
 Alpha(0;0):
               (au)            (10**-24 esu)      (10**-40 SI)
   iso        0.743556D+02      0.110184D+02      0.122596D+02
   aniso      0.211669D+02      0.313661D+01      0.348995D+01
   xx         0.876906D+02      0.129944D+02      0.144582D+02
   yx        -0.639668D+00     -0.947890D-01     -0.105467D+00
   yy         0.712552D+02      0.105589D+02      0.117484D+02
   zx        -0.168758D+01     -0.250073D+00     -0.278244D+00
   zy        -0.313813D-01     -0.465023D-02     -0.517408D-02
   zz         0.641212D+02      0.950178D+01      0.105722D+02

 ----------------------------------------------------------------------

 Dipole orientation:
     7          0.35091843          1.38388728          3.40607891
     6          2.46695380          0.62706260          1.78800531
    15          1.43945137          0.68684173         -1.49729965
     1          3.12516550         -1.25531367          2.34407997
     1          4.04440673          1.93860917          2.03512819
     8          3.19795356         -0.61789281         -3.21079779
     8         -1.07098431         -1.33769474         -1.13540213
     6         -1.61996348         -0.50697568          3.37958616
     1         -0.34746807          2.99786755          2.62879830
     6         -2.49874108         -1.64307189          0.87434780
     1         -3.31081471          0.21522567          4.31803811
     1         -1.00277209         -2.13742806          4.50976288
     8         -4.40384160         -2.89629468          0.83114051
     8          0.31741007          3.20961501         -1.94961803

 Electric dipole moment (dipole orientation):
 (Debye = 10**-18 statcoulomb cm , SI units = C m)
                  (au)            (Debye)         (10**-30 SI)
   Tot        0.209056D+01      0.531368D+01      0.177245D+02
   x          0.000000D+00      0.000000D+00      0.000000D+00
   y          0.000000D+00      0.000000D+00      0.000000D+00
   z          0.209056D+01      0.531368D+01      0.177245D+02

 Dipole polarizability, Alpha (dipole orientation).
 (esu units = cm**3 , SI units = C**2 m**2 J**-1)
 Alpha(0;0):
               (au)            (10**-24 esu)      (10**-40 SI)
   iso        0.743556D+02      0.110184D+02      0.122596D+02
   aniso      0.211669D+02      0.313661D+01      0.348995D+01
   xx         0.796141D+02      0.117976D+02      0.131266D+02
   yx         0.740568D+01      0.109741D+01      0.122103D+01
   yy         0.682451D+02      0.101129D+02      0.112521D+02
   zx        -0.773537D+01     -0.114626D+01     -0.127539D+01
   zy        -0.134471D+01     -0.199265D+00     -0.221713D+00
   zz         0.752078D+02      0.111446D+02      0.124001D+02

 ----------------------------------------------------------------------
 Unable to Open any file for archive entry.
 1\1\GINC-GADI-CPU-CLX-2592\Freq\UM06\def2TZVP\C3H5N1O4P1(1-)\OR4187\23
 -Sep-2024\0\\#N Geom=AllCheck Guess=TCheck SCRF=Check GenChk UM06/def2
 TZVP Freq\\glydehydratedcyclic.CONF1.optfreq\\-1,1\N,-0.6091486621,-1.
 8541914157,0.1020111306\C,0.5493833725,-1.3989698101,-0.6712869578\P,1
 .1439078058,0.1759631565,0.0252635899\H,0.2677937214,-1.2919188084,-1.
 7245647808\H,1.348482887,-2.1433315211,-0.6167864989\O,2.0836440834,0.
 8793516149,-0.8618483211\O,-0.3413465529,1.0260051491,-0.1186457628\C,
 -1.7417640419,-0.9801520949,-0.1038375436\H,-0.330000323,-1.7926527039
 ,1.078489575\C,-1.5587098165,0.5357677979,-0.0431139601\H,-2.538282042
 3,-1.223663057,0.6029379153\H,-2.1613428672,-1.1705375078,-1.102074994
 4\O,-2.534866,1.2440816713,0.0024353721\O,1.3402617443,-0.0438429729,1
 .4761876601\\Version=ES64L-G16RevC.01\State=1-A\HF=-814.4550724\S2=0.\
 S2-1=0.\S2A=0.\RMSD=3.730e-09\RMSF=1.132e-04\ZeroPoint=0.0965026\Therm
 al=0.1045665\ETot=-814.350506\HTot=-814.3495618\GTot=-814.3918974\Dipo
 le=-1.1817945,-1.6680192,-0.4376389\DipoleDeriv=-0.680257,-0.0525011,0
 .0564559,-0.1027359,-0.7674681,0.1131567,0.0379066,0.0273243,-0.281119
 9,0.1193441,-0.0597618,-0.1110412,0.0044492,-0.0998363,-0.0869557,-0.1
 661097,-0.0769253,0.0630881,2.5458373,0.1427582,-0.0058525,-0.0367669,
 1.7091714,-0.0971056,0.0414908,-0.1358739,1.8636042,0.001277,-0.030411
 9,-0.0985574,-0.0296851,0.0467187,-0.0066282,-0.0222985,-0.0091147,-0.
 1561112,-0.085953,0.0917247,0.0366963,0.1426855,-0.0574082,-0.0072117,
 0.0141862,0.0203647,0.062585,-1.142467,-0.2622626,0.1754985,-0.3564684
 ,-0.9200298,0.1595817,0.3010701,0.1874532,-0.8976369,-2.2843557,0.3087
 9,-0.0084589,-0.0872761,-0.7530257,0.0072844,0.0569329,-0.0064726,-0.3
 74177,0.452746,-0.2254252,0.0614647,-0.190111,0.0875217,-0.0348395,0.1
 346285,-0.0909463,0.2245553,0.1099717,0.0783112,-0.011632,0.0629261,0.
 2997125,-0.0975505,0.0258664,-0.0023727,0.0853335,2.2720062,-0.3557524
 ,-0.0678058,0.0257607,1.1393216,0.0763127,-0.177394,0.0715886,0.219785
 7,-0.0811186,-0.0014759,0.0667915,0.0019821,0.0241112,0.0216372,0.1261
 846,0.0503413,-0.0022294,0.0078506,0.0220812,-0.0405512,0.0183467,0.00
 13641,-0.0224336,-0.1338595,-0.0203387,-0.1062901,-1.3535006,0.4085522
 ,0.0351155,0.5738373,-0.9441614,-0.0409803,0.0496238,-0.0207605,-0.410
 9816,-0.8813808,-0.0646267,-0.0881236,-0.0269442,-0.7659917,0.0157324,
 -0.2882281,0.0057326,-1.2904058\Polar=87.6905501,-0.6396679,71.2551802
 ,-1.6875792,-0.0313813,64.121214\Quadrupole=-7.550453,1.6384128,5.9120
 402,-0.0195005,-0.5165068,1.0963936\PG=C01 [X(C3H5N1O4P1)]\NImag=0\\0.
 49164821,-0.05706958,0.23548246,0.04547004,-0.05186677,0.60700286,-0.1
 6217330,-0.02295615,0.05171502,0.49013837,-0.04716121,-0.07549534,0.05
 162486,-0.08712471,0.44320051,0.03830088,0.02663473,-0.11546738,0.0344
 9710,-0.02356533,0.53801957,-0.02634353,-0.02084008,0.00268247,-0.0552
 1078,-0.02342016,-0.01875627,0.54006224,-0.00147646,-0.00794484,0.0039
 3564,-0.03756506,-0.13459846,-0.03729437,0.19040255,0.49957278,0.01264
 783,0.01518852,-0.00550318,-0.02544178,-0.04525598,-0.06530300,-0.1282
 9831,-0.18833737,0.95298909,0.00426437,-0.00363371,0.02937549,-0.06683
 069,0.00939261,-0.07499605,-0.00258030,0.00642308,-0.00814260,0.071562
 69,0.00302671,-0.00208110,0.01399726,0.00480388,-0.04355058,0.01581959
 ,-0.00568440,0.00734793,-0.02022204,-0.00652572,0.04429668,-0.00059440
 ,0.00302314,-0.02000700,-0.06821116,0.02407337,-0.27990287,-0.00261969
 ,0.00578391,-0.01053977,0.06822021,-0.02861334,0.30783962,-0.02517645,
 0.01495689,-0.00105641,-0.17106359,0.12631694,-0.01285821,0.00521802,-
 0.00269621,0.00113726,-0.00506499,0.00530087,-0.00016338,0.19856407,-0
 .01097050,0.01238795,-0.00317599,0.14002902,-0.17786276,0.01409073,0.0
 1982665,-0.01013107,0.00639597,-0.00026105,-0.00146820,-0.00090179,-0.
 14134964,0.18074936,0.01751328,-0.00975652,0.00106707,-0.01313248,0.01
 126936,-0.04573922,0.00647456,-0.00609540,0.00092961,-0.02027982,0.021
 00476,0.00016392,0.00835256,-0.01473223,0.04579731,-0.00321556,-0.0053
 2384,0.00085978,0.00079119,-0.00246510,0.00963379,-0.27984025,-0.17381
 347,0.20662190,-0.00014298,0.00112410,0.00013707,-0.00058859,-0.003621
 69,-0.00078678,0.30061448,-0.00909456,-0.00862198,0.00008331,-0.012474
 12,0.00260361,0.01400084,-0.17624340,-0.20308376,0.15831651,-0.0003266
 4,0.00004668,-0.00067380,0.00088208,0.00021280,0.00006518,0.18855038,0
 .18577244,0.00005439,-0.00077861,0.00211751,-0.00160338,-0.00347169,0.
 00513401,0.20037149,0.15578266,-0.26717696,0.00193431,0.00290036,0.002
 02632,-0.00004607,0.00006877,-0.00011407,-0.22938491,-0.17557995,0.268
 51201,0.01393307,-0.00319537,0.00004222,-0.01408669,0.00709552,0.00275
 141,-0.05869289,0.01275454,-0.00416322,0.00059789,0.00060207,0.0008430
 0,0.00278561,0.00335024,0.00105442,-0.03538913,0.01134091,0.00936590,0
 .52436270,0.00173480,0.00828221,-0.00045132,0.02572236,-0.01339566,-0.
 00026929,0.03843573,-0.08995605,0.00477897,-0.00013142,0.00033417,-0.0
 0034103,-0.00234056,-0.00563021,-0.00226431,-0.01253234,0.01144259,0.0
 0306767,0.05231790,0.22458739,-0.00108747,-0.00121803,-0.00058287,0.00
 917162,-0.00612937,0.00400245,-0.00394699,0.00493675,-0.04722301,0.000
 95496,0.00218591,0.00125209,-0.00097977,-0.00291053,-0.00000525,0.0133
 4146,-0.00266095,0.00606079,-0.00582186,-0.01466840,0.05510361,-0.1689
 0776,0.04788626,-0.01894292,-0.03870255,0.02144659,0.00484201,0.005431
 41,-0.01411215,0.00031134,0.00237188,0.00087952,-0.00180784,-0.0019923
 5,-0.00243976,0.00138021,0.00041448,0.00435357,-0.00030817,-0.02822467
 ,-0.03549050,-0.00049059,0.56802511,0.09354466,-0.11779727,0.03472006,
 -0.00615823,0.00158403,-0.00706846,-0.00699804,0.00494192,0.00087513,0
 .00002925,0.00031920,0.00093578,-0.00171693,-0.00025996,0.00001659,-0.
 00014114,-0.00207189,0.00028807,-0.00214864,-0.01009239,-0.00029485,0.
 00407093,0.43300352,-0.01066205,0.01701768,-0.09869590,0.01813522,-0.0
 1320887,0.00327707,0.00090206,-0.00372344,-0.00006201,0.00195380,-0.00
 106859,0.00065151,0.00538561,0.00155683,-0.00251601,-0.00014913,0.0014
 4782,-0.00043335,0.00033112,0.00287353,0.02181795,-0.03284794,-0.01960
 717,0.56269470,-0.07990950,0.00776718,-0.09547519,0.00526325,-0.002884
 64,0.03239131,0.00130412,-0.00188043,0.00785020,-0.00447793,-0.0023417
 5,0.00338518,0.00012799,0.00091929,-0.00044146,-0.00023626,-0.00017242
 ,-0.00154833,-0.00087244,-0.00005097,-0.00073142,-0.01201108,-0.001776
 04,-0.03148530,0.09375853,-0.00588463,-0.02152337,-0.05363683,-0.00117
 164,-0.00244373,0.01399773,-0.00086597,-0.00321186,0.00720885,-0.00149
 603,-0.00063077,0.00046515,0.00036750,0.00030091,-0.00048853,0.0005048
 9,0.00100400,-0.00170634,-0.00177783,-0.00037462,-0.00085880,0.0111361
 2,-0.00542668,0.02517830,-0.00614840,0.03044957,-0.08909305,-0.0062414
 3,-0.37812071,-0.00262129,-0.00129857,-0.02430071,0.00146652,0.0014366
 3,0.00129715,0.00386620,0.00019356,-0.00067683,-0.00002423,0.00004299,
 -0.00010872,-0.00060430,-0.00067819,-0.00018169,-0.00076005,0.00020212
 ,-0.00011686,-0.00200579,-0.00356517,-0.00334861,0.08947347,0.01078276
 ,0.40461077,-0.00891514,0.03736920,-0.00193208,0.01216357,-0.00431729,
 -0.00325307,-0.08171713,0.03722816,-0.00244206,-0.00050116,0.00077730,
 0.00044791,-0.00211546,-0.00405037,0.00014919,0.01419516,-0.00231442,-
 0.00448873,-0.25426152,-0.09909506,0.00621388,-0.07456589,-0.02913575,
 0.00035643,0.00145954,0.00259125,0.00156930,0.86023975,0.00336603,-0.0
 1277036,0.00076621,0.00397359,-0.00310200,-0.00231047,-0.00931804,0.02
 243959,-0.00164738,0.00009381,-0.00019295,-0.00032771,-0.00173583,-0.0
 0093264,0.00029624,0.00617693,-0.00297137,-0.00233972,-0.10983997,-0.1
 6176399,0.00803534,-0.01506531,-0.15804871,-0.00141335,0.00013952,0.00
 056688,0.00110573,-0.18770352,0.69141651,0.00239188,0.00668705,0.00275
 465,-0.00019228,-0.00214105,0.00056394,0.00296845,-0.00333323,-0.00432
 263,0.00006712,-0.00052340,-0.00058966,0.00005900,0.00032572,-0.000174
 39,0.00183181,-0.00071943,0.00045926,0.00716843,0.00643313,-0.05279145
 ,-0.00205443,-0.00053231,-0.09479883,0.00005016,0.00247521,0.00022365,
 -0.02391701,0.01196385,0.23407813,-0.02325566,-0.00238905,0.01737413,-
 0.00251316,0.00353542,-0.00280385,0.00026296,0.00159491,0.00111096,0.0
 0030674,0.00004059,0.00007066,-0.00120415,-0.00062433,0.00058463,-0.00
 014334,-0.00055058,-0.00008441,0.00049099,-0.00202713,-0.00061591,-0.1
 7622735,-0.04434219,0.12426501,0.00040549,-0.00051127,0.00013541,-0.00
 815031,-0.00290916,0.00626297,0.19994557,0.01756676,0.00346619,-0.0156
 3801,0.00260630,-0.00184199,0.00154575,0.00256056,-0.00235193,0.000221
 91,-0.00019790,-0.00015242,-0.00001999,0.00103431,0.00040506,-0.000368
 24,-0.00024481,0.00053978,0.00008622,-0.00363881,-0.00527587,-0.002745
 47,-0.04482535,-0.05935824,0.04569770,-0.00082560,0.00086455,-0.000050
 03,-0.02295677,-0.00723674,0.02393068,0.04320717,0.06791250,-0.0062892
 3,-0.00194168,0.00521814,-0.00108254,0.00057919,0.00063858,-0.00037414
 ,-0.00022007,-0.00011692,-0.00008444,-0.00014127,0.00048991,-0.0000842
 3,0.00004713,0.00035982,0.00014261,0.00009882,-0.00001973,-0.00093896,
 -0.00053518,-0.00017855,0.12735209,0.04316350,-0.16039364,0.00025808,-
 0.00062065,0.00055364,-0.00060358,-0.00434848,0.00184022,-0.13646967,-
 0.04481446,0.16882359,-0.01610602,0.00476023,-0.02657648,0.00148720,-0
 .00002848,-0.00257581,0.00009238,0.00003203,-0.00051416,0.00006802,-0.
 00018599,0.00095279,0.00026159,0.00007524,0.00003920,-0.00014594,-0.00
 017294,0.00022797,-0.00018253,-0.00140788,0.00188428,-0.07218638,-0.01
 968427,-0.07924265,-0.00457180,0.00169805,-0.00010928,-0.00333561,-0.0
 0363977,-0.01023217,0.00877807,0.00482573,0.01995988,0.08580595,0.0123
 9311,0.00061238,0.02353590,-0.00138157,0.00009236,0.00060419,0.0017367
 1,-0.00141721,0.00004818,-0.00034203,0.00016345,-0.00036583,-0.0001777
 9,-0.00001075,0.00015706,-0.00024357,0.00035227,0.00002771,-0.00225686
 ,-0.00293390,0.00411521,-0.02049329,-0.05382714,-0.05239229,0.00427498
 ,-0.00114856,0.00023599,-0.01072017,-0.00714650,-0.03452747,0.00296171
 ,0.00125168,0.00762850,0.01337531,0.06389742,-0.00597077,0.00639566,-0
 .00498307,0.00096079,-0.00029596,0.00071187,-0.00003102,0.00100600,-0.
 00039245,-0.00078399,-0.00008915,0.00021232,-0.00008352,-0.00006309,0.
 00047170,-0.00018272,-0.00037270,0.00023576,0.00094312,-0.00067194,-0.
 00036218,-0.07930537,-0.04542672,-0.25015432,-0.00097970,-0.00038626,0
 .00234269,-0.00209780,-0.00065845,-0.00367191,-0.00755547,-0.00454854,
 -0.01755765,0.09449337,0.04597533,0.27138040,0.00248789,0.00400893,0.0
 0017486,-0.00225703,0.00194442,-0.00012778,0.02922434,-0.02049214,0.00
 435863,0.00008670,-0.00014214,0.00008531,0.00051926,0.00129386,0.00005
 298,-0.00854810,0.00099213,0.00246484,-0.13363808,0.02737957,0.0074309
 1,-0.00410616,0.01414540,0.00266939,-0.00041264,-0.00093405,0.00031958
 ,-0.46768846,0.31321404,0.01717366,0.00129491,0.00101582,-0.00183578,0
 .00022833,0.00098163,0.00077877,0.58782192,0.00296652,-0.01429029,-0.0
 0101638,-0.00258481,0.00006913,0.00254905,-0.00712724,-0.00028965,-0.0
 0088467,0.00008504,0.00011655,-0.00021385,0.00076002,0.00007898,-0.000
 32680,0.00208555,0.00177545,-0.00055811,0.01468735,0.03596968,-0.00187
 247,0.03923271,-0.03092909,-0.00243887,-0.00016138,0.00013774,-0.00120
 823,0.29378572,-0.35270984,-0.01308874,0.00229219,0.00131383,0.0010359
 8,0.00074412,-0.00058039,-0.00051567,-0.34827489,0.35844456,-0.0011212
 7,-0.00129358,0.00135419,-0.00056659,0.00071764,-0.00023075,-0.0017070
 9,0.00088547,0.00375898,-0.00002322,-0.00003809,0.00006343,-0.00002114
 ,0.00006964,0.00001771,-0.00044005,0.00013481,-0.00014076,0.00796478,-
 0.00139003,0.01678207,0.00394042,-0.00321155,0.02164853,0.00029587,-0.
 00083733,-0.00016198,0.01794565,-0.01313695,-0.07961571,-0.00157219,-0
 .00314139,0.00021147,0.00137222,0.00523104,0.00175403,-0.02732850,0.01
 694505,0.03295449,0.00166938,-0.00134090,-0.00371093,0.00299420,-0.002
 32992,-0.00704548,-0.07721059,0.00360065,-0.06503601,0.00033977,-0.001
 67505,-0.00074566,-0.00027097,-0.00217695,-0.00096047,0.01223485,-0.00
 477000,0.02304509,-0.01682231,0.00748551,-0.02532309,0.00068132,0.0003
 1100,0.00038841,0.00017273,0.00249202,-0.00161250,0.01319265,0.0032476
 8,-0.00157759,0.00000925,-0.00012742,0.00004991,-0.00019326,-0.0001081
 6,-0.00018568,-0.00501289,0.00150909,0.00126111,0.06821587,-0.00294165
 ,0.00029336,-0.00287796,-0.00571887,0.00474087,-0.01873470,-0.00246488
 ,-0.08131739,0.06331340,-0.00310927,-0.00454866,-0.00282400,0.00039832
 ,0.00216053,0.00122284,-0.00005589,0.01299937,0.02221296,0.02070897,0.
 00880665,0.01408565,0.00342066,-0.00203731,0.00008072,0.00314068,0.001
 43594,-0.00095816,-0.01145828,-0.00754787,0.00304999,-0.00027828,0.000
 46360,0.00006867,-0.00039139,0.00069489,-0.00034853,0.00486743,0.00089
 335,-0.00093475,-0.00611756,0.06296267,-0.00156005,-0.00185019,0.00384
 568,-0.00162825,0.00710241,-0.02140356,-0.05913204,0.06523682,-0.55833
 492,-0.00206199,-0.00540555,-0.00098301,0.00038253,-0.00081416,-0.0001
 4949,-0.00102051,0.00653774,-0.01647911,-0.01878032,0.00323607,-0.0037
 5880,-0.00006302,-0.00029291,0.00031288,-0.00304287,-0.00157326,-0.002
 01180,0.01205197,0.00401514,-0.00395528,-0.00070230,-0.00015612,0.0001
 3114,0.00032083,-0.00027353,0.00001281,-0.00621688,0.00159370,0.001604
 30,0.08145288,-0.07735615,0.60116914\\0.00003769,-0.00001818,-0.000024
 74,-0.00014097,0.00006085,0.00007619,0.00030495,-0.00010553,0.00004739
 ,-0.00000614,-0.00003684,-0.00004350,0.00004593,0.00001758,-0.00002708
 ,-0.00016696,-0.00004002,0.00012020,-0.00022730,-0.00003455,0.00006388
 ,0.00000158,-0.00007830,0.00006571,-0.00001769,-0.00001764,-0.00003016
 ,0.00042843,0.00005360,-0.00013579,-0.00001142,0.00000203,-0.00000409,
 -0.00001624,0.00000376,-0.00001021,-0.00017378,0.00007722,0.00004543,-
 0.00005808,0.00011602,-0.00014325\\\@
 The archive entry for this job was punched.


 COMMON SENSE IS NOT SO COMMON.   -- VOLTAIRE
 Job cpu time:       0 days  3 hours 41 minutes 57.1 seconds.
 Elapsed time:       0 days  0 hours  5 minutes 28.9 seconds.
 File lengths (MBytes):  RWF=    262 Int=      0 D2E=      0 Chk=     12 Scr=      1
 Normal termination of Gaussian 16 at Mon Sep 23 15:09:35 2024.
