 Entering Gaussian System, Link 0=g16
 Initial command:
 /apps/gaussian/g16c01/g16/l1.exe "/jobfs/125256303.gadi-pbs/Gau-116262.inp" -scrdir="/jobfs/125256303.gadi-pbs/"
 Entering Link 1 = /apps/gaussian/g16c01/g16/l1.exe PID=    116263.
  
 Copyright (c) 1988-2019, Gaussian, Inc.  All Rights Reserved.
  
 This is part of the Gaussian(R) 16 program.  It is based on
 the Gaussian(R) 09 system (copyright 2009, Gaussian, Inc.),
 the Gaussian(R) 03 system (copyright 2003, Gaussian, Inc.),
 the Gaussian(R) 98 system (copyright 1998, Gaussian, Inc.),
 the Gaussian(R) 94 system (copyright 1995, Gaussian, Inc.),
 the Gaussian 92(TM) system (copyright 1992, Gaussian, Inc.),
 the Gaussian 90(TM) system (copyright 1990, Gaussian, Inc.),
 the Gaussian 88(TM) system (copyright 1988, Gaussian, Inc.),
 the Gaussian 86(TM) system (copyright 1986, Carnegie Mellon
 University), and the Gaussian 82(TM) system (copyright 1983,
 Carnegie Mellon University). Gaussian is a federally registered
 trademark of Gaussian, Inc.
  
 This software contains proprietary and confidential information,
 including trade secrets, belonging to Gaussian, Inc.
  
 This software is provided under written license and may be
 used, copied, transmitted, or stored only in accord with that
 written license.
  
 The following legend is applicable only to US Government
 contracts under FAR:
  
                    RESTRICTED RIGHTS LEGEND
  
 Use, reproduction and disclosure by the US Government is
 subject to restrictions as set forth in subparagraphs (a)
 and (c) of the Commercial Computer Software - Restricted
 Rights clause in FAR 52.227-19.
  
 Gaussian, Inc.
 340 Quinnipiac St., Bldg. 40, Wallingford CT 06492
  
  
 ---------------------------------------------------------------
 Warning -- This program may not be used in any manner that
 competes with the business of Gaussian, Inc. or will provide
 assistance to any competitor of Gaussian, Inc.  The licensee
 of this program is prohibited from giving any competitor of
 Gaussian, Inc. access to this program.  By using this program,
 the user acknowledges that Gaussian, Inc. is engaged in the
 business of creating and licensing software in the field of
 computational chemistry and represents and warrants to the
 licensee that it is not a competitor of Gaussian, Inc. and that
 it will not use this program in any manner prohibited above.
 ---------------------------------------------------------------
  

 Cite this work as:
 Gaussian 16, Revision C.01,
 M. J. Frisch, G. W. Trucks, H. B. Schlegel, G. E. Scuseria, 
 M. A. Robb, J. R. Cheeseman, G. Scalmani, V. Barone, 
 G. A. Petersson, H. Nakatsuji, X. Li, M. Caricato, A. V. Marenich, 
 J. Bloino, B. G. Janesko, R. Gomperts, B. Mennucci, H. P. Hratchian, 
 J. V. Ortiz, A. F. Izmaylov, J. L. Sonnenberg, D. Williams-Young, 
 F. Ding, F. Lipparini, F. Egidi, J. Goings, B. Peng, A. Petrone, 
 T. Henderson, D. Ranasinghe, V. G. Zakrzewski, J. Gao, N. Rega, 
 G. Zheng, W. Liang, M. Hada, M. Ehara, K. Toyota, R. Fukuda, 
 J. Hasegawa, M. Ishida, T. Nakajima, Y. Honda, O. Kitao, H. Nakai, 
 T. Vreven, K. Throssell, J. A. Montgomery, Jr., J. E. Peralta, 
 F. Ogliaro, M. J. Bearpark, J. J. Heyd, E. N. Brothers, K. N. Kudin, 
 V. N. Staroverov, T. A. Keith, R. Kobayashi, J. Normand, 
 K. Raghavachari, A. P. Rendell, J. C. Burant, S. S. Iyengar, 
 J. Tomasi, M. Cossi, J. M. Millam, M. Klene, C. Adamo, R. Cammi, 
 J. W. Ochterski, R. L. Martin, K. Morokuma, O. Farkas, 
 J. B. Foresman, and D. J. Fox, Gaussian, Inc., Wallingford CT, 2019.
 
 ******************************************
 Gaussian 16:  ES64L-G16RevC.01  3-Jul-2019
                23-Sep-2024 
 ******************************************
 %mem=60gb
 %nprocs=48
 Will use up to   48 processors via shared memory.
 %RWF=/scratch/gy60/or4187/rwf/glydehydratedlinear.CONF1.rwf
 %NoSave
 %Chk=glydehydratedlinear.CONF1.chk
 ----------------------------------------------------------------------
 #UM06/Def2TZVP OPT Freq=Noraman INT(grid=ultrafine) EmpiricalDispersio
 n=GD3 SCF=XQC Pop=NPA
 ----------------------------------------------------------------------
 1/18=20,19=15,26=4,38=1/1,3;
 2/9=110,12=2,17=6,18=5,40=1/2;
 3/5=44,7=101,11=2,25=1,30=1,71=1,74=-54,75=-5,116=2,124=31/1,2,3;
 4//1;
 5/5=2,8=3,13=1,38=5/2,8;
 6/7=2,8=2,9=2,10=2,28=1,40=-1/1,7;
 7//1,2,3,16;
 1/18=20,19=15,26=4/3(2);
 2/9=110/2;
 99//99;
 2/9=110/2;
 3/5=44,7=101,11=2,25=1,30=1,71=1,74=-54,75=-5,116=2,124=31/1,2,3;
 4/5=5,16=3,69=1/1;
 5/5=2,8=3,13=1,38=5/2,8;
 7//1,2,3,16;
 1/18=20,19=15,26=4/3(-5);
 2/9=110/2;
 6/7=2,8=2,9=2,10=2,19=2,28=1,40=-1/1,7;
 99/9=1/99;
 ---------------------------------
 glydehydratedlinear.CONF1.optfreq
 ---------------------------------
 Symbolic Z-matrix:
 Charge = -1 Multiplicity = 1
 C                    -2.37128  -0.22142   0.06893 
 O                    -2.54111   0.65275   0.95425 
 O                    -3.09167  -1.17344  -0.28587 
 C                    -1.00494  -0.10506  -0.69461 
 N                    -0.41558   1.2048   -0.50799 
 H                    -1.12421  -0.35093  -1.75711 
 H                    -0.32756  -0.89347  -0.26029 
 C                     0.9657    1.26915  -0.74864 
 P                     1.99715  -0.05498   0.21097 
 H                     1.40348   2.23508  -0.4574 
 H                     1.22803   1.0563   -1.79307 
 O                     3.08039  -0.69021  -0.58851 
 O                     1.76204  -0.09813   1.67535 
 H                    -0.74131   1.54409   0.40064 
 

 GradGradGradGradGradGradGradGradGradGradGradGradGradGradGradGradGradGrad
 Berny optimization.
 Initialization pass.
                           ----------------------------
                           !    Initial Parameters    !
                           ! (Angstroms and Degrees)  !
 --------------------------                            --------------------------
 ! Name  Definition              Value          Derivative Info.                !
 --------------------------------------------------------------------------------
 ! R1    R(1,2)                  1.2557         estimate D2E/DX2                !
 ! R2    R(1,3)                  1.2455         estimate D2E/DX2                !
 ! R3    R(1,4)                  1.5695         estimate D2E/DX2                !
 ! R4    R(4,5)                  1.4484         estimate D2E/DX2                !
 ! R5    R(4,6)                  1.0971         estimate D2E/DX2                !
 ! R6    R(4,7)                  1.1265         estimate D2E/DX2                !
 ! R7    R(5,8)                  1.4036         estimate D2E/DX2                !
 ! R8    R(5,14)                 1.0231         estimate D2E/DX2                !
 ! R9    R(8,9)                  1.9334         estimate D2E/DX2                !
 ! R10   R(8,10)                 1.0998         estimate D2E/DX2                !
 ! R11   R(8,11)                 1.0977         estimate D2E/DX2                !
 ! R12   R(9,12)                 1.4887         estimate D2E/DX2                !
 ! R13   R(9,13)                 1.4838         estimate D2E/DX2                !
 ! A1    A(2,1,3)              130.9012         estimate D2E/DX2                !
 ! A2    A(2,1,4)              114.1487         estimate D2E/DX2                !
 ! A3    A(3,1,4)              114.9365         estimate D2E/DX2                !
 ! A4    A(1,4,5)              111.0135         estimate D2E/DX2                !
 ! A5    A(1,4,6)              111.0936         estimate D2E/DX2                !
 ! A6    A(1,4,7)              106.4996         estimate D2E/DX2                !
 ! A7    A(5,4,6)              111.8202         estimate D2E/DX2                !
 ! A8    A(5,4,7)              109.7896         estimate D2E/DX2                !
 ! A9    A(6,4,7)              106.374          estimate D2E/DX2                !
 ! A10   A(4,5,8)              114.8226         estimate D2E/DX2                !
 ! A11   A(4,5,14)             106.5457         estimate D2E/DX2                !
 ! A12   A(8,5,14)             116.7675         estimate D2E/DX2                !
 ! A13   A(5,8,9)              114.1119         estimate D2E/DX2                !
 ! A14   A(5,8,10)             112.7435         estimate D2E/DX2                !
 ! A15   A(5,8,11)             112.9191         estimate D2E/DX2                !
 ! A16   A(9,8,10)             104.9349         estimate D2E/DX2                !
 ! A17   A(9,8,11)             102.2368         estimate D2E/DX2                !
 ! A18   A(10,8,11)            109.0955         estimate D2E/DX2                !
 ! A19   A(8,9,12)             114.4494         estimate D2E/DX2                !
 ! A20   A(8,9,13)             115.1651         estimate D2E/DX2                !
 ! A21   A(12,9,13)            129.2665         estimate D2E/DX2                !
 ! D1    D(2,1,4,5)            -17.5673         estimate D2E/DX2                !
 ! D2    D(2,1,4,6)           -142.6634         estimate D2E/DX2                !
 ! D3    D(2,1,4,7)            101.9079         estimate D2E/DX2                !
 ! D4    D(3,1,4,5)            163.6263         estimate D2E/DX2                !
 ! D5    D(3,1,4,6)             38.5303         estimate D2E/DX2                !
 ! D6    D(3,1,4,7)            -76.8984         estimate D2E/DX2                !
 ! D7    D(1,4,5,8)            159.3832         estimate D2E/DX2                !
 ! D8    D(1,4,5,14)            28.4587         estimate D2E/DX2                !
 ! D9    D(6,4,5,8)            -75.9303         estimate D2E/DX2                !
 ! D10   D(6,4,5,14)           153.1452         estimate D2E/DX2                !
 ! D11   D(7,4,5,8)             41.8956         estimate D2E/DX2                !
 ! D12   D(7,4,5,14)           -89.0289         estimate D2E/DX2                !
 ! D13   D(4,5,8,9)            -52.0176         estimate D2E/DX2                !
 ! D14   D(4,5,8,10)          -171.6073         estimate D2E/DX2                !
 ! D15   D(4,5,8,11)            64.1727         estimate D2E/DX2                !
 ! D16   D(14,5,8,9)            73.7674         estimate D2E/DX2                !
 ! D17   D(14,5,8,10)          -45.8223         estimate D2E/DX2                !
 ! D18   D(14,5,8,11)         -170.0423         estimate D2E/DX2                !
 ! D19   D(5,8,9,12)           138.2135         estimate D2E/DX2                !
 ! D20   D(5,8,9,13)           -52.736          estimate D2E/DX2                !
 ! D21   D(10,8,9,12)          -97.886          estimate D2E/DX2                !
 ! D22   D(10,8,9,13)           71.1645         estimate D2E/DX2                !
 ! D23   D(11,8,9,12)           15.9613         estimate D2E/DX2                !
 ! D24   D(11,8,9,13)         -174.9881         estimate D2E/DX2                !
 --------------------------------------------------------------------------------
 Trust Radius=3.00D-01 FncErr=1.00D-07 GrdErr=1.00D-06 EigMax=2.50D+02 EigMin=1.00D-04
 Number of steps in this run=     68 maximum allowed number of steps=    100.
 GradGradGradGradGradGradGradGradGradGradGradGradGradGradGradGradGradGrad

                          Input orientation:                          
 ---------------------------------------------------------------------
 Center     Atomic      Atomic             Coordinates (Angstroms)
 Number     Number       Type             X           Y           Z
 ---------------------------------------------------------------------
      1          6           0       -2.371280   -0.221424    0.068934
      2          8           0       -2.541105    0.652746    0.954248
      3          8           0       -3.091669   -1.173443   -0.285868
      4          6           0       -1.004939   -0.105060   -0.694612
      5          7           0       -0.415578    1.204798   -0.507986
      6          1           0       -1.124205   -0.350929   -1.757113
      7          1           0       -0.327562   -0.893473   -0.260293
      8          6           0        0.965700    1.269147   -0.748638
      9         15           0        1.997151   -0.054984    0.210971
     10          1           0        1.403478    2.235076   -0.457397
     11          1           0        1.228028    1.056300   -1.793070
     12          8           0        3.080389   -0.690211   -0.588510
     13          8           0        1.762044   -0.098129    1.675347
     14          1           0       -0.741307    1.544090    0.400641
 ---------------------------------------------------------------------
                    Distance matrix (angstroms):
                    1          2          3          4          5
     1  C    0.000000
     2  O    1.255704   0.000000
     3  O    1.245466   2.275077   0.000000
     4  C    1.569532   2.377565   2.379697   0.000000
     5  N    2.488316   2.638324   3.587037   1.448414   0.000000
     6  H    2.215043   3.219696   2.590754   1.097080   2.117252
     7  H    2.176424   2.960688   2.778367   1.126529   2.114673
     8  C    3.745085   3.946828   4.758429   2.403078   1.403560
     9  P    4.373908   4.652861   5.233918   3.136102   2.815175
    10  H    4.534338   4.478420   5.643915   3.366450   2.091171
    11  H    4.249077   4.681557   5.089519   2.746181   2.091634
    12  O    5.511142   5.982042   6.198339   4.128385   3.977352
    13  O    4.436229   4.427289   5.344268   3.643206   3.347625
    14  H    2.425671   2.083326   3.657934   1.997192   1.023143
                    6          7          8          9         10
     6  H    0.000000
     7  H    1.780299   0.000000
     8  C    2.830083   2.566697   0.000000
     9  P    3.701865   2.515839   1.933407   0.000000
    10  H    3.842638   3.580946   1.099768   2.458361   0.000000
    11  H    2.741275   2.927607   1.097706   2.417164   1.790061
    12  O    4.377140   3.429748   2.887323   1.488652   3.374393
    13  O    4.491784   2.957318   2.894704   1.483758   3.181354
    14  H    2.897172   2.559244   2.076128   3.176817   2.411181
                   11         12         13         14
    11  H    0.000000
    12  O    2.816471   0.000000
    13  O    3.694293   2.685823   0.000000
    14  H    2.988075   4.536065   3.254001   0.000000
 Stoichiometry    C3H5NO4P(1-)
 Framework group  C1[X(C3H5NO4P)]
 Deg. of freedom    36
 Full point group                 C1      NOp   1
 Largest Abelian subgroup         C1      NOp   1
 Largest concise Abelian subgroup C1      NOp   1
                         Standard orientation:                         
 ---------------------------------------------------------------------
 Center     Atomic      Atomic             Coordinates (Angstroms)
 Number     Number       Type             X           Y           Z
 ---------------------------------------------------------------------
      1          6           0        2.464228   -0.197256    0.164130
      2          8           0        2.607179   -0.420307   -1.063309
      3          8           0        3.209029   -0.447229    1.130552
      4          6           0        1.101358    0.485427    0.538241
      5          7           0        0.480562    1.079253   -0.627902
      6          1           0        1.234261    1.215873    1.345934
      7          1           0        0.439087   -0.327169    0.950736
      8          6           0       -0.899980    1.303582   -0.510593
      9         15           0       -1.907825   -0.249007    0.047775
     10          1           0       -1.362094    1.615600   -1.458530
     11          1           0       -1.149456    2.035465    0.268553
     12          8           0       -2.970075    0.034255    1.051505
     13          8           0       -1.682823   -1.471910   -0.761804
     14          1           0        0.791529    0.531574   -1.434233
 ---------------------------------------------------------------------
 Rotational constants (GHZ):           2.8693373           0.6620982           0.6564533
 Standard basis: def2TZVP (5D, 7F)
 There are   360 symmetry adapted cartesian basis functions of A   symmetry.
 There are   315 symmetry adapted basis functions of A   symmetry.
   315 basis functions,   517 primitive gaussians,   360 cartesian basis functions
    39 alpha electrons       39 beta electrons
       nuclear repulsion energy       526.4312796138 Hartrees.
 NAtoms=   14 NActive=   14 NUniq=   14 SFac= 1.00D+00 NAtFMM=   60 NAOKFM=F Big=F
 Integral buffers will be    131072 words long.
 Raffenetti 2 integral format.
 Two-electron integral symmetry is turned on.
 Nuclear repulsion after empirical dispersion term =      526.4297730562 Hartrees.
 One-electron integrals computed using PRISM.
   1 Symmetry operations used in ECPInt.
 ECPInt:  NShTT=    7381 NPrTT=   23880 LenC2=    6959 LenP2D=   17088.
 LDataN:  DoStor=T MaxTD1= 6 Len=  172
 NBasis=   315 RedAO= T EigKep=  4.22D-04  NBF=   315
 NBsUse=   315 1.00D-06 EigRej= -1.00D+00 NBFU=   315
 ExpMin= 9.04D-02 ExpMax= 5.24D+04 ExpMxC= 1.79D+03 IAcc=3 IRadAn=         5 AccDes= 0.00D+00
 Harris functional with IExCor= 1009 and IRadAn=       5 diagonalized for initial guess.
 HarFok:  IExCor= 1009 AccDes= 0.00D+00 IRadAn=         5 IDoV= 1 UseB2=F ITyADJ=14
 ICtDFT=  3500011 ScaDFX=  1.000000  1.000000  1.000000  1.000000
 FoFCou: FMM=F IPFlag=           0 FMFlag=      100000 FMFlg1=           0
         NFxFlg=           0 DoJE=T BraDBF=F KetDBF=T FulRan=T
         wScrn=  0.000000 ICntrl=       500 IOpCl=  0 I1Cent=   200000004 NGrid=           0
         NMat0=    1 NMatS0=      1 NMatT0=    0 NMatD0=    1 NMtDS0=    0 NMtDT0=    0
 Petite list used in FoFCou.
 Initial guess <Sx>= 0.0000 <Sy>= 0.0000 <Sz>= 0.0000 <S**2>=-0.0000 S=-0.0000
 Requested convergence on RMS density matrix=1.00D-08 within  32 cycles.
 Requested convergence on MAX density matrix=1.00D-06.
 Requested convergence on             energy=1.00D-06.
 No special actions if energy rises.
 Integral accuracy reduced to 1.0D-05 until final iterations.
 EnCoef did     1 forward-backward iterations
 Initial convergence to 1.0D-05 achieved.  Increase integral accuracy.
 SCF Done:  E(UM06) =  -814.387439004     A.U. after   17 cycles
            NFock= 17  Conv=0.87D-08     -V/T= 2.0035
 <Sx>= 0.0000 <Sy>= 0.0000 <Sz>= 0.0000 <S**2>=-0.0000 S=-0.0000
 <L.S>= 0.000000000000E+00
 Annihilation of the first spin contaminant:
 S**2 before annihilation    -0.0000,   after    -0.0000
 QCSCF skips out because SCF is already converged.

 **********************************************************************

            Population analysis using the SCF Density.

 **********************************************************************

 Orbital symmetries:
 Alpha Orbitals:
       Occupied  (A) (A) (A) (A) (A) (A) (A) (A) (A) (A) (A) (A)
                 (A) (A) (A) (A) (A) (A) (A) (A) (A) (A) (A) (A)
                 (A) (A) (A) (A) (A) (A) (A) (A) (A) (A) (A) (A)
                 (A) (A) (A)
       Virtual   (A) (A) (A) (A) (A) (A) (A) (A) (A) (A) (A) (A)
                 (A) (A) (A) (A) (A) (A) (A) (A) (A) (A) (A) (A)
                 (A) (A) (A) (A) (A) (A) (A) (A) (A) (A) (A) (A)
                 (A) (A) (A) (A) (A) (A) (A) (A) (A) (A) (A) (A)
                 (A) (A) (A) (A) (A) (A) (A) (A) (A) (A) (A) (A)
                 (A) (A) (A) (A) (A) (A) (A) (A) (A) (A) (A) (A)
                 (A) (A) (A) (A) (A) (A) (A) (A) (A) (A) (A) (A)
                 (A) (A) (A) (A) (A) (A) (A) (A) (A) (A) (A) (A)
                 (A) (A) (A) (A) (A) (A) (A) (A) (A) (A) (A) (A)
                 (A) (A) (A) (A) (A) (A) (A) (A) (A) (A) (A) (A)
                 (A) (A) (A) (A) (A) (A) (A) (A) (A) (A) (A) (A)
                 (A) (A) (A) (A) (A) (A) (A) (A) (A) (A) (A) (A)
                 (A) (A) (A) (A) (A) (A) (A) (A) (A) (A) (A) (A)
                 (A) (A) (A) (A) (A) (A) (A) (A) (A) (A) (A) (A)
                 (A) (A) (A) (A) (A) (A) (A) (A) (A) (A) (A) (A)
                 (A) (A) (A) (A) (A) (A) (A) (A) (A) (A) (A) (A)
                 (A) (A) (A) (A) (A) (A) (A) (A) (A) (A) (A) (A)
                 (A) (A) (A) (A) (A) (A) (A) (A) (A) (A) (A) (A)
                 (A) (A) (A) (A) (A) (A) (A) (A) (A) (A) (A) (A)
                 (A) (A) (A) (A) (A) (A) (A) (A) (A) (A) (A) (A)
                 (A) (A) (A) (A) (A) (A) (A) (A) (A) (A) (A) (A)
                 (A) (A) (A) (A) (A) (A) (A) (A) (A) (A) (A) (A)
                 (A) (A) (A) (A) (A) (A) (A) (A) (A) (A) (A) (A)
 Beta  Orbitals:
       Occupied  (A) (A) (A) (A) (A) (A) (A) (A) (A) (A) (A) (A)
                 (A) (A) (A) (A) (A) (A) (A) (A) (A) (A) (A) (A)
                 (A) (A) (A) (A) (A) (A) (A) (A) (A) (A) (A) (A)
                 (A) (A) (A)
       Virtual   (A) (A) (A) (A) (A) (A) (A) (A) (A) (A) (A) (A)
                 (A) (A) (A) (A) (A) (A) (A) (A) (A) (A) (A) (A)
                 (A) (A) (A) (A) (A) (A) (A) (A) (A) (A) (A) (A)
                 (A) (A) (A) (A) (A) (A) (A) (A) (A) (A) (A) (A)
                 (A) (A) (A) (A) (A) (A) (A) (A) (A) (A) (A) (A)
                 (A) (A) (A) (A) (A) (A) (A) (A) (A) (A) (A) (A)
                 (A) (A) (A) (A) (A) (A) (A) (A) (A) (A) (A) (A)
                 (A) (A) (A) (A) (A) (A) (A) (A) (A) (A) (A) (A)
                 (A) (A) (A) (A) (A) (A) (A) (A) (A) (A) (A) (A)
                 (A) (A) (A) (A) (A) (A) (A) (A) (A) (A) (A) (A)
                 (A) (A) (A) (A) (A) (A) (A) (A) (A) (A) (A) (A)
                 (A) (A) (A) (A) (A) (A) (A) (A) (A) (A) (A) (A)
                 (A) (A) (A) (A) (A) (A) (A) (A) (A) (A) (A) (A)
                 (A) (A) (A) (A) (A) (A) (A) (A) (A) (A) (A) (A)
                 (A) (A) (A) (A) (A) (A) (A) (A) (A) (A) (A) (A)
                 (A) (A) (A) (A) (A) (A) (A) (A) (A) (A) (A) (A)
                 (A) (A) (A) (A) (A) (A) (A) (A) (A) (A) (A) (A)
                 (A) (A) (A) (A) (A) (A) (A) (A) (A) (A) (A) (A)
                 (A) (A) (A) (A) (A) (A) (A) (A) (A) (A) (A) (A)
                 (A) (A) (A) (A) (A) (A) (A) (A) (A) (A) (A) (A)
                 (A) (A) (A) (A) (A) (A) (A) (A) (A) (A) (A) (A)
                 (A) (A) (A) (A) (A) (A) (A) (A) (A) (A) (A) (A)
                 (A) (A) (A) (A) (A) (A) (A) (A) (A) (A) (A) (A)
 The electronic state is 1-A.
 Alpha  occ. eigenvalues --  -77.20598 -19.09638 -19.09372 -18.98151 -18.97466
 Alpha  occ. eigenvalues --  -14.27104 -10.19775 -10.15847 -10.12903  -6.61731
 Alpha  occ. eigenvalues --   -4.74104  -4.73419  -4.73308  -0.93429  -0.88444
 Alpha  occ. eigenvalues --   -0.87776  -0.82181  -0.79545  -0.62043  -0.54081
 Alpha  occ. eigenvalues --   -0.43886  -0.41989  -0.36861  -0.35123  -0.33860
 Alpha  occ. eigenvalues --   -0.31860  -0.30930  -0.29571  -0.28745  -0.26388
 Alpha  occ. eigenvalues --   -0.24381  -0.23872  -0.23066  -0.21760  -0.21578
 Alpha  occ. eigenvalues --   -0.13807  -0.10054  -0.09234  -0.08333
 Alpha virt. eigenvalues --    0.05672   0.10483   0.15667   0.17467   0.19808
 Alpha virt. eigenvalues --    0.20951   0.21492   0.23487   0.24532   0.26846
 Alpha virt. eigenvalues --    0.28676   0.31008   0.31223   0.32935   0.34968
 Alpha virt. eigenvalues --    0.35749   0.36038   0.38305   0.38771   0.40649
 Alpha virt. eigenvalues --    0.41385   0.42664   0.43773   0.45745   0.45953
 Alpha virt. eigenvalues --    0.47607   0.49714   0.50125   0.51609   0.52329
 Alpha virt. eigenvalues --    0.53427   0.54487   0.55456   0.56195   0.57188
 Alpha virt. eigenvalues --    0.57719   0.58303   0.58746   0.61423   0.62488
 Alpha virt. eigenvalues --    0.64113   0.66170   0.66435   0.66939   0.67841
 Alpha virt. eigenvalues --    0.69969   0.71188   0.72180   0.74700   0.75805
 Alpha virt. eigenvalues --    0.77321   0.78272   0.80960   0.82350   0.82735
 Alpha virt. eigenvalues --    0.85762   0.90065   0.91358   0.92797   0.94849
 Alpha virt. eigenvalues --    0.95299   0.96964   1.00005   1.02220   1.03838
 Alpha virt. eigenvalues --    1.07961   1.10388   1.11229   1.14065   1.16675
 Alpha virt. eigenvalues --    1.17619   1.19240   1.24421   1.28512   1.29958
 Alpha virt. eigenvalues --    1.33801   1.36365   1.38763   1.41613   1.42806
 Alpha virt. eigenvalues --    1.44289   1.45428   1.47243   1.48574   1.50457
 Alpha virt. eigenvalues --    1.51327   1.52881   1.53384   1.54594   1.55038
 Alpha virt. eigenvalues --    1.57974   1.59766   1.61674   1.64923   1.65895
 Alpha virt. eigenvalues --    1.66727   1.69198   1.71244   1.74171   1.75526
 Alpha virt. eigenvalues --    1.77653   1.80225   1.82937   1.84310   1.86535
 Alpha virt. eigenvalues --    1.87424   1.87622   1.92299   1.94598   1.95758
 Alpha virt. eigenvalues --    1.97059   2.00200   2.02878   2.05017   2.06115
 Alpha virt. eigenvalues --    2.07130   2.09387   2.11291   2.13967   2.18506
 Alpha virt. eigenvalues --    2.19004   2.24412   2.25050   2.27870   2.28793
 Alpha virt. eigenvalues --    2.30510   2.31911   2.32645   2.34448   2.35422
 Alpha virt. eigenvalues --    2.37076   2.39494   2.42487   2.44645   2.46063
 Alpha virt. eigenvalues --    2.48853   2.52129   2.54145   2.57511   2.62603
 Alpha virt. eigenvalues --    2.65748   2.68051   2.73865   2.74632   2.75897
 Alpha virt. eigenvalues --    2.77740   2.80276   2.82297   2.88656   2.91578
 Alpha virt. eigenvalues --    2.93931   2.96204   2.98427   3.00130   3.01652
 Alpha virt. eigenvalues --    3.03278   3.06941   3.08016   3.11609   3.15323
 Alpha virt. eigenvalues --    3.16562   3.17414   3.19312   3.20920   3.22128
 Alpha virt. eigenvalues --    3.25099   3.28727   3.29674   3.32054   3.34387
 Alpha virt. eigenvalues --    3.37835   3.38669   3.40254   3.42748   3.44939
 Alpha virt. eigenvalues --    3.46704   3.48178   3.49844   3.52163   3.54494
 Alpha virt. eigenvalues --    3.59336   3.61638   3.63557   3.64625   3.67660
 Alpha virt. eigenvalues --    3.72987   3.75325   3.80442   3.82378   3.86541
 Alpha virt. eigenvalues --    3.94646   3.97885   4.01138   4.07008   4.11480
 Alpha virt. eigenvalues --    4.13938   4.16584   4.22208   4.26365   4.36099
 Alpha virt. eigenvalues --    4.41242   4.46941   4.66151   4.71018   4.83657
 Alpha virt. eigenvalues --    4.90467   5.00559   5.10170   5.18241   5.19668
 Alpha virt. eigenvalues --    5.27455   5.27683   5.27970   5.28462   5.28970
 Alpha virt. eigenvalues --    5.30879   5.34256   5.35552   5.36317   5.39104
 Alpha virt. eigenvalues --    5.40992   5.41356   5.41701   5.42368   5.44571
 Alpha virt. eigenvalues --    5.45775   5.51406   5.53152   5.58465   5.58714
 Alpha virt. eigenvalues --    5.64009   5.66194   5.69841   5.73578   5.77126
 Alpha virt. eigenvalues --    5.80153   5.84555   5.88784   6.06998   6.22361
 Alpha virt. eigenvalues --    6.33056   6.34047   6.46743   6.49739   6.52355
 Alpha virt. eigenvalues --    6.53637   6.59111   6.61492   6.67577   6.71766
 Alpha virt. eigenvalues --    6.76671   6.80927   6.82463   6.85002   6.93749
 Alpha virt. eigenvalues --    7.00668   7.00947   7.02320   7.05133   7.12601
 Alpha virt. eigenvalues --    7.18506   7.35275   7.36196   7.46534   7.48955
 Alpha virt. eigenvalues --    7.98144   8.42622  16.16517  22.47834  22.55929
 Alpha virt. eigenvalues --   23.58994  32.40755  43.53634  43.78610  43.99544
 Alpha virt. eigenvalues --   44.02638
  Beta  occ. eigenvalues --  -77.20598 -19.09638 -19.09372 -18.98151 -18.97466
  Beta  occ. eigenvalues --  -14.27104 -10.19775 -10.15847 -10.12903  -6.61731
  Beta  occ. eigenvalues --   -4.74104  -4.73419  -4.73308  -0.93429  -0.88444
  Beta  occ. eigenvalues --   -0.87776  -0.82181  -0.79545  -0.62043  -0.54081
  Beta  occ. eigenvalues --   -0.43886  -0.41989  -0.36861  -0.35123  -0.33860
  Beta  occ. eigenvalues --   -0.31860  -0.30930  -0.29571  -0.28745  -0.26388
  Beta  occ. eigenvalues --   -0.24381  -0.23872  -0.23066  -0.21760  -0.21578
  Beta  occ. eigenvalues --   -0.13807  -0.10054  -0.09234  -0.08333
  Beta virt. eigenvalues --    0.05672   0.10483   0.15667   0.17467   0.19808
  Beta virt. eigenvalues --    0.20951   0.21492   0.23487   0.24532   0.26846
  Beta virt. eigenvalues --    0.28676   0.31008   0.31223   0.32935   0.34968
  Beta virt. eigenvalues --    0.35749   0.36038   0.38305   0.38771   0.40649
  Beta virt. eigenvalues --    0.41385   0.42664   0.43773   0.45745   0.45953
  Beta virt. eigenvalues --    0.47607   0.49714   0.50125   0.51609   0.52329
  Beta virt. eigenvalues --    0.53427   0.54487   0.55456   0.56195   0.57188
  Beta virt. eigenvalues --    0.57719   0.58303   0.58746   0.61423   0.62488
  Beta virt. eigenvalues --    0.64113   0.66170   0.66435   0.66939   0.67841
  Beta virt. eigenvalues --    0.69969   0.71188   0.72180   0.74700   0.75805
  Beta virt. eigenvalues --    0.77321   0.78272   0.80960   0.82350   0.82735
  Beta virt. eigenvalues --    0.85762   0.90065   0.91358   0.92797   0.94849
  Beta virt. eigenvalues --    0.95299   0.96964   1.00005   1.02220   1.03838
  Beta virt. eigenvalues --    1.07961   1.10388   1.11229   1.14065   1.16675
  Beta virt. eigenvalues --    1.17619   1.19240   1.24421   1.28512   1.29958
  Beta virt. eigenvalues --    1.33801   1.36365   1.38763   1.41613   1.42806
  Beta virt. eigenvalues --    1.44289   1.45428   1.47243   1.48574   1.50457
  Beta virt. eigenvalues --    1.51327   1.52881   1.53384   1.54594   1.55038
  Beta virt. eigenvalues --    1.57974   1.59766   1.61674   1.64923   1.65895
  Beta virt. eigenvalues --    1.66727   1.69198   1.71244   1.74171   1.75526
  Beta virt. eigenvalues --    1.77653   1.80225   1.82937   1.84310   1.86535
  Beta virt. eigenvalues --    1.87424   1.87622   1.92299   1.94598   1.95758
  Beta virt. eigenvalues --    1.97059   2.00200   2.02878   2.05017   2.06115
  Beta virt. eigenvalues --    2.07130   2.09387   2.11291   2.13967   2.18506
  Beta virt. eigenvalues --    2.19004   2.24412   2.25050   2.27870   2.28793
  Beta virt. eigenvalues --    2.30510   2.31911   2.32645   2.34448   2.35422
  Beta virt. eigenvalues --    2.37076   2.39494   2.42487   2.44645   2.46063
  Beta virt. eigenvalues --    2.48853   2.52129   2.54145   2.57511   2.62603
  Beta virt. eigenvalues --    2.65748   2.68051   2.73865   2.74632   2.75897
  Beta virt. eigenvalues --    2.77740   2.80276   2.82297   2.88656   2.91578
  Beta virt. eigenvalues --    2.93931   2.96204   2.98427   3.00130   3.01652
  Beta virt. eigenvalues --    3.03278   3.06941   3.08016   3.11609   3.15323
  Beta virt. eigenvalues --    3.16562   3.17414   3.19312   3.20920   3.22128
  Beta virt. eigenvalues --    3.25099   3.28727   3.29674   3.32054   3.34387
  Beta virt. eigenvalues --    3.37835   3.38669   3.40254   3.42748   3.44939
  Beta virt. eigenvalues --    3.46704   3.48178   3.49844   3.52163   3.54494
  Beta virt. eigenvalues --    3.59336   3.61638   3.63557   3.64625   3.67660
  Beta virt. eigenvalues --    3.72987   3.75325   3.80442   3.82378   3.86541
  Beta virt. eigenvalues --    3.94646   3.97885   4.01138   4.07008   4.11480
  Beta virt. eigenvalues --    4.13938   4.16584   4.22208   4.26365   4.36099
  Beta virt. eigenvalues --    4.41242   4.46941   4.66151   4.71018   4.83657
  Beta virt. eigenvalues --    4.90467   5.00559   5.10170   5.18241   5.19668
  Beta virt. eigenvalues --    5.27455   5.27683   5.27970   5.28462   5.28970
  Beta virt. eigenvalues --    5.30879   5.34256   5.35552   5.36317   5.39104
  Beta virt. eigenvalues --    5.40992   5.41356   5.41701   5.42368   5.44571
  Beta virt. eigenvalues --    5.45775   5.51406   5.53152   5.58465   5.58714
  Beta virt. eigenvalues --    5.64009   5.66194   5.69841   5.73578   5.77126
  Beta virt. eigenvalues --    5.80153   5.84555   5.88784   6.06998   6.22361
  Beta virt. eigenvalues --    6.33056   6.34047   6.46743   6.49739   6.52355
  Beta virt. eigenvalues --    6.53637   6.59111   6.61492   6.67577   6.71766
  Beta virt. eigenvalues --    6.76671   6.80927   6.82463   6.85002   6.93749
  Beta virt. eigenvalues --    7.00668   7.00947   7.02320   7.05133   7.12601
  Beta virt. eigenvalues --    7.18506   7.35275   7.36196   7.46534   7.48955
  Beta virt. eigenvalues --    7.98144   8.42622  16.16517  22.47834  22.55929
  Beta virt. eigenvalues --   23.58994  32.40755  43.53634  43.78610  43.99544
  Beta virt. eigenvalues --   44.02638
          Condensed to atoms (all electrons):
               1          2          3          4          5          6
     1  C    4.282346   0.522690   0.585059   0.158967  -0.010332  -0.000894
     2  O    0.522690   8.328372  -0.095065  -0.199672  -0.028216   0.006548
     3  O    0.585059  -0.095065   8.260252  -0.191106   0.008499   0.012689
     4  C    0.158967  -0.199672  -0.191106   5.744892   0.093980   0.362106
     5  N   -0.010332  -0.028216   0.008499   0.093980   6.884425  -0.028898
     6  H   -0.000894   0.006548   0.012689   0.362106  -0.028898   0.645177
     7  H   -0.009319   0.002189   0.008035   0.337085  -0.088930  -0.065732
     8  C    0.003493  -0.001717  -0.000683  -0.070133   0.272932  -0.016237
     9  P    0.000190   0.000934  -0.000003   0.005931  -0.092904  -0.005155
    10  H    0.001321   0.000852   0.000058   0.005863  -0.031422   0.000269
    11  H   -0.000500  -0.000274  -0.000063  -0.008202  -0.031838   0.007579
    12  O    0.000045  -0.000002  -0.000000  -0.000240   0.005698   0.000139
    13  O   -0.000241  -0.000200   0.000006  -0.001477   0.010328   0.000398
    14  H    0.002762   0.059881   0.003595  -0.069876   0.341975   0.009564
               7          8          9         10         11         12
     1  C   -0.009319   0.003493   0.000190   0.001321  -0.000500   0.000045
     2  O    0.002189  -0.001717   0.000934   0.000852  -0.000274  -0.000002
     3  O    0.008035  -0.000683  -0.000003   0.000058  -0.000063  -0.000000
     4  C    0.337085  -0.070133   0.005931   0.005863  -0.008202  -0.000240
     5  N   -0.088930   0.272932  -0.092904  -0.031422  -0.031838   0.005698
     6  H   -0.065732  -0.016237  -0.005155   0.000269   0.007579   0.000139
     7  H    0.745578  -0.009343   0.062102   0.001119  -0.011414  -0.006066
     8  C   -0.009343   5.061502   0.243911   0.362203   0.382867  -0.041635
     9  P    0.062102   0.243911  13.156312  -0.020200  -0.070247   0.515599
    10  H    0.001119   0.362203  -0.020200   0.614502  -0.029805   0.001001
    11  H   -0.011414   0.382867  -0.070247  -0.029805   0.620076   0.012852
    12  O   -0.006066  -0.041635   0.515599   0.001001   0.012852   8.021151
    13  O   -0.008101  -0.032923   0.516573  -0.000142   0.004052  -0.027337
    14  H   -0.004066  -0.044692  -0.003387  -0.004330   0.007195   0.000076
              13         14
     1  C   -0.000241   0.002762
     2  O   -0.000200   0.059881
     3  O    0.000006   0.003595
     4  C   -0.001477  -0.069876
     5  N    0.010328   0.341975
     6  H    0.000398   0.009564
     7  H   -0.008101  -0.004066
     8  C   -0.032923  -0.044692
     9  P    0.516573  -0.003387
    10  H   -0.000142  -0.004330
    11  H    0.004052   0.007195
    12  O   -0.027337   0.000076
    13  O    7.991001   0.002654
    14  H    0.002654   0.482724
          Atomic-Atomic Spin Densities.
               1          2          3          4          5          6
     1  C    0.000000   0.000000   0.000000   0.000000   0.000000   0.000000
     2  O    0.000000   0.000000   0.000000   0.000000   0.000000   0.000000
     3  O    0.000000   0.000000   0.000000   0.000000   0.000000   0.000000
     4  C    0.000000   0.000000   0.000000   0.000000   0.000000   0.000000
     5  N    0.000000   0.000000   0.000000   0.000000   0.000000   0.000000
     6  H    0.000000   0.000000   0.000000   0.000000   0.000000   0.000000
     7  H    0.000000   0.000000   0.000000   0.000000   0.000000   0.000000
     8  C    0.000000   0.000000   0.000000   0.000000   0.000000   0.000000
     9  P    0.000000   0.000000   0.000000   0.000000   0.000000   0.000000
    10  H    0.000000   0.000000   0.000000   0.000000   0.000000   0.000000
    11  H    0.000000   0.000000   0.000000   0.000000   0.000000   0.000000
    12  O    0.000000   0.000000   0.000000   0.000000   0.000000   0.000000
    13  O    0.000000   0.000000   0.000000   0.000000   0.000000   0.000000
    14  H    0.000000   0.000000   0.000000   0.000000   0.000000   0.000000
               7          8          9         10         11         12
     1  C    0.000000   0.000000   0.000000   0.000000   0.000000   0.000000
     2  O    0.000000   0.000000   0.000000   0.000000   0.000000   0.000000
     3  O    0.000000   0.000000   0.000000   0.000000   0.000000   0.000000
     4  C    0.000000   0.000000   0.000000   0.000000   0.000000   0.000000
     5  N    0.000000   0.000000   0.000000   0.000000   0.000000   0.000000
     6  H    0.000000   0.000000   0.000000   0.000000   0.000000   0.000000
     7  H    0.000000   0.000000   0.000000   0.000000   0.000000   0.000000
     8  C    0.000000   0.000000   0.000000   0.000000   0.000000   0.000000
     9  P    0.000000   0.000000   0.000000   0.000000   0.000000   0.000000
    10  H    0.000000   0.000000   0.000000   0.000000   0.000000   0.000000
    11  H    0.000000   0.000000   0.000000   0.000000   0.000000   0.000000
    12  O    0.000000   0.000000   0.000000   0.000000   0.000000   0.000000
    13  O    0.000000   0.000000   0.000000   0.000000   0.000000   0.000000
    14  H    0.000000   0.000000   0.000000   0.000000   0.000000   0.000000
              13         14
     1  C    0.000000   0.000000
     2  O    0.000000   0.000000
     3  O    0.000000   0.000000
     4  C    0.000000   0.000000
     5  N    0.000000   0.000000
     6  H    0.000000   0.000000
     7  H    0.000000   0.000000
     8  C    0.000000   0.000000
     9  P    0.000000   0.000000
    10  H    0.000000   0.000000
    11  H    0.000000   0.000000
    12  O    0.000000   0.000000
    13  O    0.000000   0.000000
    14  H    0.000000   0.000000
 Mulliken charges and spin densities:
               1          2
     1  C    0.464412   0.000000
     2  O   -0.596320   0.000000
     3  O   -0.591272   0.000000
     4  C   -0.168118   0.000000
     5  N   -0.305299   0.000000
     6  H    0.072447   0.000000
     7  H    0.046865   0.000000
     8  C   -0.109545   0.000000
     9  P    0.690345   0.000000
    10  H    0.098711   0.000000
    11  H    0.117723   0.000000
    12  O   -0.481281   0.000000
    13  O   -0.454592   0.000000
    14  H    0.215925   0.000000
 Sum of Mulliken charges =  -1.00000   0.00000
 Mulliken charges and spin densities with hydrogens summed into heavy atoms:
               1          2
     1  C    0.464412   0.000000
     2  O   -0.596320   0.000000
     3  O   -0.591272   0.000000
     4  C   -0.048806   0.000000
     5  N   -0.089374   0.000000
     8  C    0.106889   0.000000
     9  P    0.690345   0.000000
    12  O   -0.481281   0.000000
    13  O   -0.454592   0.000000
 Electronic spatial extent (au):  <R**2>=           1741.1403
 Charge=             -1.0000 electrons
 Dipole moment (field-independent basis, Debye):
    X=             -7.7584    Y=              4.2715    Z=             -1.1404  Tot=              8.9297
 Quadrupole moment (field-independent basis, Debye-Ang):
   XX=           -112.5182   YY=            -65.6425   ZZ=            -68.6506
   XY=              1.3024   XZ=              3.2629   YZ=             -2.5839
 Traceless Quadrupole moment (field-independent basis, Debye-Ang):
   XX=            -30.2478   YY=             16.6280   ZZ=             13.6198
   XY=              1.3024   XZ=              3.2629   YZ=             -2.5839
 Octapole moment (field-independent basis, Debye-Ang**2):
  XXX=            -85.2290  YYY=              0.2799  ZZZ=             -8.6010  XYY=             -2.3011
  XXY=             26.6078  XXZ=            -32.2932  XZZ=            -17.2769  YZZ=              4.7426
  YYZ=              6.0242  XYZ=              8.2639
 Hexadecapole moment (field-independent basis, Debye-Ang**3):
 XXXX=          -2157.3225 YYYY=           -307.9641 ZZZZ=           -277.1074 XXXY=             64.0995
 XXXZ=              8.4033 YYYX=            -13.4649 YYYZ=              1.3460 ZZZX=             -2.7250
 ZZZY=             -2.2449 XXYY=           -339.2844 XXZZ=           -404.7604 YYZZ=            -96.6571
 XXYZ=             -3.0445 YYXZ=             -4.8988 ZZXY=              6.9724
 N-N= 5.264297730562D+02 E-N=-2.990041484233D+03  KE= 8.115757468817D+02
                          Isotropic Fermi Contact Couplings
        Atom                 a.u.       MegaHertz       Gauss      10(-4) cm-1
     1  C(13)              0.00000       0.00000       0.00000       0.00000
     2  O(17)              0.00000      -0.00000      -0.00000      -0.00000
     3  O(17)              0.00000      -0.00000      -0.00000      -0.00000
     4  C(13)              0.00000       0.00000       0.00000       0.00000
     5  N(14)              0.00000       0.00000       0.00000       0.00000
     6  H(1)               0.00000       0.00000       0.00000       0.00000
     7  H(1)               0.00000       0.00000       0.00000       0.00000
     8  C(13)              0.00000       0.00000       0.00000       0.00000
     9  P(31)              0.00000       0.00000       0.00000       0.00000
    10  H(1)               0.00000       0.00000       0.00000       0.00000
    11  H(1)               0.00000       0.00000       0.00000       0.00000
    12  O(17)              0.00000      -0.00000      -0.00000      -0.00000
    13  O(17)              0.00000      -0.00000      -0.00000      -0.00000
    14  H(1)               0.00000       0.00000       0.00000       0.00000
 --------------------------------------------------------
       Center         ----  Spin Dipole Couplings  ----
                      3XX-RR        3YY-RR        3ZZ-RR
 --------------------------------------------------------
     1   Atom        0.000000      0.000000      0.000000
     2   Atom        0.000000      0.000000      0.000000
     3   Atom        0.000000      0.000000      0.000000
     4   Atom        0.000000      0.000000      0.000000
     5   Atom        0.000000      0.000000      0.000000
     6   Atom        0.000000      0.000000      0.000000
     7   Atom        0.000000      0.000000      0.000000
     8   Atom        0.000000      0.000000      0.000000
     9   Atom        0.000000      0.000000      0.000000
    10   Atom        0.000000      0.000000      0.000000
    11   Atom        0.000000      0.000000      0.000000
    12   Atom        0.000000      0.000000      0.000000
    13   Atom        0.000000      0.000000      0.000000
    14   Atom        0.000000      0.000000      0.000000
 --------------------------------------------------------
                        XY            XZ            YZ
 --------------------------------------------------------
     1   Atom        0.000000      0.000000      0.000000
     2   Atom        0.000000      0.000000      0.000000
     3   Atom        0.000000      0.000000      0.000000
     4   Atom        0.000000      0.000000      0.000000
     5   Atom        0.000000      0.000000      0.000000
     6   Atom        0.000000      0.000000      0.000000
     7   Atom        0.000000      0.000000      0.000000
     8   Atom        0.000000      0.000000      0.000000
     9   Atom        0.000000      0.000000      0.000000
    10   Atom        0.000000      0.000000      0.000000
    11   Atom        0.000000      0.000000      0.000000
    12   Atom        0.000000      0.000000      0.000000
    13   Atom        0.000000      0.000000      0.000000
    14   Atom        0.000000      0.000000      0.000000
 --------------------------------------------------------


 ---------------------------------------------------------------------------------
              Anisotropic Spin Dipole Couplings in Principal Axis System
 ---------------------------------------------------------------------------------

       Atom             a.u.   MegaHertz   Gauss  10(-4) cm-1        Axes

              Baa     0.0000     0.000     0.000     0.000  1.0000  0.0000  0.0000
     1 C(13)  Bbb     0.0000     0.000     0.000     0.000 -0.0000  1.0000  0.0000
              Bcc     0.0000     0.000     0.000     0.000  0.0000  0.0000  1.0000
 
              Baa     0.0000    -0.000    -0.000    -0.000  1.0000  0.0000  0.0000
     2 O(17)  Bbb     0.0000    -0.000    -0.000    -0.000 -0.0000  1.0000  0.0000
              Bcc     0.0000    -0.000    -0.000    -0.000  0.0000  0.0000  1.0000
 
              Baa     0.0000    -0.000    -0.000    -0.000  1.0000  0.0000  0.0000
     3 O(17)  Bbb     0.0000    -0.000    -0.000    -0.000 -0.0000  1.0000  0.0000
              Bcc     0.0000    -0.000    -0.000    -0.000  0.0000  0.0000  1.0000
 
              Baa     0.0000     0.000     0.000     0.000  1.0000  0.0000  0.0000
     4 C(13)  Bbb     0.0000     0.000     0.000     0.000 -0.0000  1.0000  0.0000
              Bcc     0.0000     0.000     0.000     0.000  0.0000  0.0000  1.0000
 
              Baa     0.0000     0.000     0.000     0.000  1.0000  0.0000  0.0000
     5 N(14)  Bbb     0.0000     0.000     0.000     0.000 -0.0000  1.0000  0.0000
              Bcc     0.0000     0.000     0.000     0.000  0.0000  0.0000  1.0000
 
              Baa     0.0000     0.000     0.000     0.000  1.0000  0.0000  0.0000
     6 H(1)   Bbb     0.0000     0.000     0.000     0.000 -0.0000  1.0000  0.0000
              Bcc     0.0000     0.000     0.000     0.000  0.0000  0.0000  1.0000
 
              Baa     0.0000     0.000     0.000     0.000  1.0000  0.0000  0.0000
     7 H(1)   Bbb     0.0000     0.000     0.000     0.000 -0.0000  1.0000  0.0000
              Bcc     0.0000     0.000     0.000     0.000  0.0000  0.0000  1.0000
 
              Baa     0.0000     0.000     0.000     0.000  1.0000  0.0000  0.0000
     8 C(13)  Bbb     0.0000     0.000     0.000     0.000 -0.0000  1.0000  0.0000
              Bcc     0.0000     0.000     0.000     0.000  0.0000  0.0000  1.0000
 
              Baa     0.0000     0.000     0.000     0.000  1.0000  0.0000  0.0000
     9 P(31)  Bbb     0.0000     0.000     0.000     0.000 -0.0000  1.0000  0.0000
              Bcc     0.0000     0.000     0.000     0.000  0.0000  0.0000  1.0000
 
              Baa     0.0000     0.000     0.000     0.000  1.0000  0.0000  0.0000
    10 H(1)   Bbb     0.0000     0.000     0.000     0.000 -0.0000  1.0000  0.0000
              Bcc     0.0000     0.000     0.000     0.000  0.0000  0.0000  1.0000
 
              Baa     0.0000     0.000     0.000     0.000  1.0000  0.0000  0.0000
    11 H(1)   Bbb     0.0000     0.000     0.000     0.000 -0.0000  1.0000  0.0000
              Bcc     0.0000     0.000     0.000     0.000  0.0000  0.0000  1.0000
 
              Baa     0.0000    -0.000    -0.000    -0.000  1.0000  0.0000  0.0000
    12 O(17)  Bbb     0.0000    -0.000    -0.000    -0.000 -0.0000  1.0000  0.0000
              Bcc     0.0000    -0.000    -0.000    -0.000  0.0000  0.0000  1.0000
 
              Baa     0.0000    -0.000    -0.000    -0.000  1.0000  0.0000  0.0000
    13 O(17)  Bbb     0.0000    -0.000    -0.000    -0.000 -0.0000  1.0000  0.0000
              Bcc     0.0000    -0.000    -0.000    -0.000  0.0000  0.0000  1.0000
 
              Baa     0.0000     0.000     0.000     0.000  1.0000  0.0000  0.0000
    14 H(1)   Bbb     0.0000     0.000     0.000     0.000 -0.0000  1.0000  0.0000
              Bcc     0.0000     0.000     0.000     0.000  0.0000  0.0000  1.0000
 

 ---------------------------------------------------------------------------------

 ******************************Gaussian NBO Version 3.1******************************
             N A T U R A L   A T O M I C   O R B I T A L   A N D
          N A T U R A L   B O N D   O R B I T A L   A N A L Y S I S
 ******************************Gaussian NBO Version 3.1******************************
       /RESON  / : Allow strongly delocalized NBO set

 Analyzing the SCF density

 Job title: glydehydratedlinear.CONF1.optfreq                               

 Storage needed:    299055 in NPA (8053062560 available)
 GSVD:  LWork=       31521 too small for GESVD, short by      102249 words or      102249 for optimal perf.


 NATURAL POPULATIONS:  Natural atomic orbital occupancies 
                                                          
   NAO  Atom  No  lang   Type(AO)    Occupancy
 --------------------------------------------
     1    C    1  S      Cor( 1S)     1.99957
     2    C    1  S      Val( 2S)     0.77152
     3    C    1  S      Ryd( 3S)     0.00524
     4    C    1  S      Ryd( 4S)     0.00021
     5    C    1  S      Ryd( 5S)     0.00001
     6    C    1  px     Val( 2p)     0.84346
     7    C    1  px     Ryd( 3p)     0.00822
     8    C    1  px     Ryd( 4p)     0.00031
     9    C    1  py     Val( 2p)     0.79690
    10    C    1  py     Ryd( 3p)     0.00317
    11    C    1  py     Ryd( 4p)     0.00038
    12    C    1  pz     Val( 2p)     0.78306
    13    C    1  pz     Ryd( 3p)     0.01974
    14    C    1  pz     Ryd( 4p)     0.00031
    15    C    1  dxy    Ryd( 3d)     0.00045
    16    C    1  dxy    Ryd( 4d)     0.00043
    17    C    1  dxz    Ryd( 3d)     0.00124
    18    C    1  dxz    Ryd( 4d)     0.00017
    19    C    1  dyz    Ryd( 3d)     0.00158
    20    C    1  dyz    Ryd( 4d)     0.00028
    21    C    1  dx2y2  Ryd( 3d)     0.00034
    22    C    1  dx2y2  Ryd( 4d)     0.00024
    23    C    1  dz2    Ryd( 3d)     0.00126
    24    C    1  dz2    Ryd( 4d)     0.00025
    25    C    1  f(0)   Ryd( 4f)     0.00007
    26    C    1  f(C1)  Ryd( 4f)     0.00007
    27    C    1  f(S1)  Ryd( 4f)     0.00007
    28    C    1  f(C2)  Ryd( 4f)     0.00005
    29    C    1  f(S2)  Ryd( 4f)     0.00005
    30    C    1  f(C3)  Ryd( 4f)     0.00002
    31    C    1  f(S3)  Ryd( 4f)     0.00004

    32    O    2  S      Cor( 1S)     1.99977
    33    O    2  S      Val( 2S)     1.73362
    34    O    2  S      Ryd( 3S)     0.00038
    35    O    2  S      Ryd( 4S)     0.00019
    36    O    2  S      Ryd( 5S)     0.00000
    37    O    2  px     Val( 2p)     1.80544
    38    O    2  px     Ryd( 3p)     0.00170
    39    O    2  px     Ryd( 4p)     0.00004
    40    O    2  py     Val( 2p)     1.65429
    41    O    2  py     Ryd( 3p)     0.00114
    42    O    2  py     Ryd( 4p)     0.00007
    43    O    2  pz     Val( 2p)     1.55094
    44    O    2  pz     Ryd( 3p)     0.00127
    45    O    2  pz     Ryd( 4p)     0.00024
    46    O    2  dxy    Ryd( 3d)     0.00057
    47    O    2  dxy    Ryd( 4d)     0.00001
    48    O    2  dxz    Ryd( 3d)     0.00405
    49    O    2  dxz    Ryd( 4d)     0.00003
    50    O    2  dyz    Ryd( 3d)     0.00507
    51    O    2  dyz    Ryd( 4d)     0.00004
    52    O    2  dx2y2  Ryd( 3d)     0.00079
    53    O    2  dx2y2  Ryd( 4d)     0.00002
    54    O    2  dz2    Ryd( 3d)     0.00737
    55    O    2  dz2    Ryd( 4d)     0.00002
    56    O    2  f(0)   Ryd( 4f)     0.00015
    57    O    2  f(C1)  Ryd( 4f)     0.00024
    58    O    2  f(S1)  Ryd( 4f)     0.00023
    59    O    2  f(C2)  Ryd( 4f)     0.00004
    60    O    2  f(S2)  Ryd( 4f)     0.00003
    61    O    2  f(C3)  Ryd( 4f)     0.00000
    62    O    2  f(S3)  Ryd( 4f)     0.00000

    63    O    3  S      Cor( 1S)     1.99977
    64    O    3  S      Val( 2S)     1.72675
    65    O    3  S      Ryd( 3S)     0.00038
    66    O    3  S      Ryd( 4S)     0.00023
    67    O    3  S      Ryd( 5S)     0.00000
    68    O    3  px     Val( 2p)     1.69123
    69    O    3  px     Ryd( 3p)     0.00132
    70    O    3  px     Ryd( 4p)     0.00012
    71    O    3  py     Val( 2p)     1.63640
    72    O    3  py     Ryd( 3p)     0.00126
    73    O    3  py     Ryd( 4p)     0.00005
    74    O    3  pz     Val( 2p)     1.66859
    75    O    3  pz     Ryd( 3p)     0.00157
    76    O    3  pz     Ryd( 4p)     0.00017
    77    O    3  dxy    Ryd( 3d)     0.00247
    78    O    3  dxy    Ryd( 4d)     0.00003
    79    O    3  dxz    Ryd( 3d)     0.00560
    80    O    3  dxz    Ryd( 4d)     0.00001
    81    O    3  dyz    Ryd( 3d)     0.00334
    82    O    3  dyz    Ryd( 4d)     0.00002
    83    O    3  dx2y2  Ryd( 3d)     0.00264
    84    O    3  dx2y2  Ryd( 4d)     0.00003
    85    O    3  dz2    Ryd( 3d)     0.00433
    86    O    3  dz2    Ryd( 4d)     0.00002
    87    O    3  f(0)   Ryd( 4f)     0.00017
    88    O    3  f(C1)  Ryd( 4f)     0.00013
    89    O    3  f(S1)  Ryd( 4f)     0.00008
    90    O    3  f(C2)  Ryd( 4f)     0.00015
    91    O    3  f(S2)  Ryd( 4f)     0.00017
    92    O    3  f(C3)  Ryd( 4f)     0.00004
    93    O    3  f(S3)  Ryd( 4f)     0.00003

    94    C    4  S      Cor( 1S)     1.99931
    95    C    4  S      Val( 2S)     1.09025
    96    C    4  S      Ryd( 3S)     0.00216
    97    C    4  S      Ryd( 4S)     0.00026
    98    C    4  S      Ryd( 5S)     0.00000
    99    C    4  px     Val( 2p)     1.12925
   100    C    4  px     Ryd( 3p)     0.00361
   101    C    4  px     Ryd( 4p)     0.00032
   102    C    4  py     Val( 2p)     1.10173
   103    C    4  py     Ryd( 3p)     0.00196
   104    C    4  py     Ryd( 4p)     0.00030
   105    C    4  pz     Val( 2p)     0.98443
   106    C    4  pz     Ryd( 3p)     0.00507
   107    C    4  pz     Ryd( 4p)     0.00029
   108    C    4  dxy    Ryd( 3d)     0.00134
   109    C    4  dxy    Ryd( 4d)     0.00020
   110    C    4  dxz    Ryd( 3d)     0.00152
   111    C    4  dxz    Ryd( 4d)     0.00027
   112    C    4  dyz    Ryd( 3d)     0.00130
   113    C    4  dyz    Ryd( 4d)     0.00046
   114    C    4  dx2y2  Ryd( 3d)     0.00095
   115    C    4  dx2y2  Ryd( 4d)     0.00012
   116    C    4  dz2    Ryd( 3d)     0.00128
   117    C    4  dz2    Ryd( 4d)     0.00032
   118    C    4  f(0)   Ryd( 4f)     0.00002
   119    C    4  f(C1)  Ryd( 4f)     0.00011
   120    C    4  f(S1)  Ryd( 4f)     0.00011
   121    C    4  f(C2)  Ryd( 4f)     0.00008
   122    C    4  f(S2)  Ryd( 4f)     0.00014
   123    C    4  f(C3)  Ryd( 4f)     0.00004
   124    C    4  f(S3)  Ryd( 4f)     0.00012

   125    N    5  S      Cor( 1S)     1.99953
   126    N    5  S      Val( 2S)     1.31868
   127    N    5  S      Ryd( 3S)     0.00145
   128    N    5  S      Ryd( 4S)     0.00017
   129    N    5  S      Ryd( 5S)     0.00000
   130    N    5  px     Val( 2p)     1.26480
   131    N    5  px     Ryd( 3p)     0.00426
   132    N    5  px     Ryd( 4p)     0.00023
   133    N    5  py     Val( 2p)     1.65592
   134    N    5  py     Ryd( 3p)     0.00730
   135    N    5  py     Ryd( 4p)     0.00034
   136    N    5  pz     Val( 2p)     1.33415
   137    N    5  pz     Ryd( 3p)     0.00271
   138    N    5  pz     Ryd( 4p)     0.00018
   139    N    5  dxy    Ryd( 3d)     0.00209
   140    N    5  dxy    Ryd( 4d)     0.00023
   141    N    5  dxz    Ryd( 3d)     0.00062
   142    N    5  dxz    Ryd( 4d)     0.00035
   143    N    5  dyz    Ryd( 3d)     0.00443
   144    N    5  dyz    Ryd( 4d)     0.00008
   145    N    5  dx2y2  Ryd( 3d)     0.00355
   146    N    5  dx2y2  Ryd( 4d)     0.00014
   147    N    5  dz2    Ryd( 3d)     0.00189
   148    N    5  dz2    Ryd( 4d)     0.00020
   149    N    5  f(0)   Ryd( 4f)     0.00002
   150    N    5  f(C1)  Ryd( 4f)     0.00011
   151    N    5  f(S1)  Ryd( 4f)     0.00012
   152    N    5  f(C2)  Ryd( 4f)     0.00004
   153    N    5  f(S2)  Ryd( 4f)     0.00007
   154    N    5  f(C3)  Ryd( 4f)     0.00023
   155    N    5  f(S3)  Ryd( 4f)     0.00009

   156    H    6  S      Val( 1S)     0.81427
   157    H    6  S      Ryd( 2S)     0.00131
   158    H    6  S      Ryd( 3S)     0.00012
   159    H    6  px     Ryd( 2p)     0.00015
   160    H    6  py     Ryd( 2p)     0.00027
   161    H    6  pz     Ryd( 2p)     0.00036

   162    H    7  S      Val( 1S)     0.85634
   163    H    7  S      Ryd( 2S)     0.00285
   164    H    7  S      Ryd( 3S)     0.00013
   165    H    7  px     Ryd( 2p)     0.00024
   166    H    7  py     Ryd( 2p)     0.00047
   167    H    7  pz     Ryd( 2p)     0.00025

   168    C    8  S      Cor( 1S)     1.99935
   169    C    8  S      Val( 2S)     1.12730
   170    C    8  S      Ryd( 3S)     0.00601
   171    C    8  S      Ryd( 4S)     0.00069
   172    C    8  S      Ryd( 5S)     0.00000
   173    C    8  px     Val( 2p)     0.97334
   174    C    8  px     Ryd( 3p)     0.00369
   175    C    8  px     Ryd( 4p)     0.00039
   176    C    8  py     Val( 2p)     1.16132
   177    C    8  py     Ryd( 3p)     0.00265
   178    C    8  py     Ryd( 4p)     0.00040
   179    C    8  pz     Val( 2p)     1.21851
   180    C    8  pz     Ryd( 3p)     0.00274
   181    C    8  pz     Ryd( 4p)     0.00032
   182    C    8  dxy    Ryd( 3d)     0.00275
   183    C    8  dxy    Ryd( 4d)     0.00024
   184    C    8  dxz    Ryd( 3d)     0.00155
   185    C    8  dxz    Ryd( 4d)     0.00027
   186    C    8  dyz    Ryd( 3d)     0.00163
   187    C    8  dyz    Ryd( 4d)     0.00019
   188    C    8  dx2y2  Ryd( 3d)     0.00148
   189    C    8  dx2y2  Ryd( 4d)     0.00026
   190    C    8  dz2    Ryd( 3d)     0.00163
   191    C    8  dz2    Ryd( 4d)     0.00015
   192    C    8  f(0)   Ryd( 4f)     0.00004
   193    C    8  f(C1)  Ryd( 4f)     0.00008
   194    C    8  f(S1)  Ryd( 4f)     0.00008
   195    C    8  f(C2)  Ryd( 4f)     0.00008
   196    C    8  f(S2)  Ryd( 4f)     0.00002
   197    C    8  f(C3)  Ryd( 4f)     0.00006
   198    C    8  f(S3)  Ryd( 4f)     0.00004

   199    P    9  S      Cor( 1S)     2.00000
   200    P    9  S      Cor( 2S)     1.99949
   201    P    9  S      Val( 3S)     0.98608
   202    P    9  S      Ryd( 4S)     0.01635
   203    P    9  S      Ryd( 5S)     0.00016
   204    P    9  px     Cor( 2p)     1.99976
   205    P    9  px     Val( 3p)     0.61142
   206    P    9  px     Ryd( 4p)     0.00539
   207    P    9  px     Ryd( 5p)     0.00034
   208    P    9  px     Ryd( 6p)     0.00002
   209    P    9  py     Cor( 2p)     1.99979
   210    P    9  py     Val( 3p)     0.61002
   211    P    9  py     Ryd( 4p)     0.00691
   212    P    9  py     Ryd( 5p)     0.00023
   213    P    9  py     Ryd( 6p)     0.00001
   214    P    9  pz     Cor( 2p)     1.99970
   215    P    9  pz     Val( 3p)     0.56874
   216    P    9  pz     Ryd( 4p)     0.00715
   217    P    9  pz     Ryd( 5p)     0.00035
   218    P    9  pz     Ryd( 6p)     0.00001
   219    P    9  dxy    Ryd( 3d)     0.02449
   220    P    9  dxy    Ryd( 4d)     0.00023
   221    P    9  dxz    Ryd( 3d)     0.01615
   222    P    9  dxz    Ryd( 4d)     0.00102
   223    P    9  dyz    Ryd( 3d)     0.02114
   224    P    9  dyz    Ryd( 4d)     0.00063
   225    P    9  dx2y2  Ryd( 3d)     0.01545
   226    P    9  dx2y2  Ryd( 4d)     0.00051
   227    P    9  dz2    Ryd( 3d)     0.02905
   228    P    9  dz2    Ryd( 4d)     0.00030
   229    P    9  f(0)   Ryd( 4f)     0.00007
   230    P    9  f(C1)  Ryd( 4f)     0.00010
   231    P    9  f(S1)  Ryd( 4f)     0.00019
   232    P    9  f(C2)  Ryd( 4f)     0.00026
   233    P    9  f(S2)  Ryd( 4f)     0.00022
   234    P    9  f(C3)  Ryd( 4f)     0.00019
   235    P    9  f(S3)  Ryd( 4f)     0.00019

   236    H   10  S      Val( 1S)     0.77983
   237    H   10  S      Ryd( 2S)     0.00104
   238    H   10  S      Ryd( 3S)     0.00013
   239    H   10  px     Ryd( 2p)     0.00016
   240    H   10  py     Ryd( 2p)     0.00015
   241    H   10  pz     Ryd( 2p)     0.00028

   242    H   11  S      Val( 1S)     0.79298
   243    H   11  S      Ryd( 2S)     0.00189
   244    H   11  S      Ryd( 3S)     0.00014
   245    H   11  px     Ryd( 2p)     0.00013
   246    H   11  py     Ryd( 2p)     0.00024
   247    H   11  pz     Ryd( 2p)     0.00022

   248    O   12  S      Cor( 1S)     1.99984
   249    O   12  S      Val( 2S)     1.83102
   250    O   12  S      Ryd( 3S)     0.00047
   251    O   12  S      Ryd( 4S)     0.00012
   252    O   12  S      Ryd( 5S)     0.00000
   253    O   12  px     Val( 2p)     1.67793
   254    O   12  px     Ryd( 3p)     0.00058
   255    O   12  px     Ryd( 4p)     0.00010
   256    O   12  py     Val( 2p)     1.81504
   257    O   12  py     Ryd( 3p)     0.00129
   258    O   12  py     Ryd( 4p)     0.00003
   259    O   12  pz     Val( 2p)     1.67315
   260    O   12  pz     Ryd( 3p)     0.00076
   261    O   12  pz     Ryd( 4p)     0.00009
   262    O   12  dxy    Ryd( 3d)     0.00511
   263    O   12  dxy    Ryd( 4d)     0.00002
   264    O   12  dxz    Ryd( 3d)     0.00802
   265    O   12  dxz    Ryd( 4d)     0.00001
   266    O   12  dyz    Ryd( 3d)     0.00433
   267    O   12  dyz    Ryd( 4d)     0.00001
   268    O   12  dx2y2  Ryd( 3d)     0.00503
   269    O   12  dx2y2  Ryd( 4d)     0.00001
   270    O   12  dz2    Ryd( 3d)     0.00761
   271    O   12  dz2    Ryd( 4d)     0.00002
   272    O   12  f(0)   Ryd( 4f)     0.00005
   273    O   12  f(C1)  Ryd( 4f)     0.00009
   274    O   12  f(S1)  Ryd( 4f)     0.00002
   275    O   12  f(C2)  Ryd( 4f)     0.00006
   276    O   12  f(S2)  Ryd( 4f)     0.00007
   277    O   12  f(C3)  Ryd( 4f)     0.00005
   278    O   12  f(S3)  Ryd( 4f)     0.00004

   279    O   13  S      Cor( 1S)     1.99983
   280    O   13  S      Val( 2S)     1.82954
   281    O   13  S      Ryd( 3S)     0.00036
   282    O   13  S      Ryd( 4S)     0.00009
   283    O   13  S      Ryd( 5S)     0.00000
   284    O   13  px     Val( 2p)     1.75847
   285    O   13  px     Ryd( 3p)     0.00126
   286    O   13  px     Ryd( 4p)     0.00004
   287    O   13  py     Val( 2p)     1.70336
   288    O   13  py     Ryd( 3p)     0.00051
   289    O   13  py     Ryd( 4p)     0.00012
   290    O   13  pz     Val( 2p)     1.68580
   291    O   13  pz     Ryd( 3p)     0.00121
   292    O   13  pz     Ryd( 4p)     0.00006
   293    O   13  dxy    Ryd( 3d)     0.00720
   294    O   13  dxy    Ryd( 4d)     0.00002
   295    O   13  dxz    Ryd( 3d)     0.00286
   296    O   13  dxz    Ryd( 4d)     0.00001
   297    O   13  dyz    Ryd( 3d)     0.00883
   298    O   13  dyz    Ryd( 4d)     0.00001
   299    O   13  dx2y2  Ryd( 3d)     0.00640
   300    O   13  dx2y2  Ryd( 4d)     0.00001
   301    O   13  dz2    Ryd( 3d)     0.00591
   302    O   13  dz2    Ryd( 4d)     0.00001
   303    O   13  f(0)   Ryd( 4f)     0.00003
   304    O   13  f(C1)  Ryd( 4f)     0.00001
   305    O   13  f(S1)  Ryd( 4f)     0.00011
   306    O   13  f(C2)  Ryd( 4f)     0.00006
   307    O   13  f(S2)  Ryd( 4f)     0.00008
   308    O   13  f(C3)  Ryd( 4f)     0.00006
   309    O   13  f(S3)  Ryd( 4f)     0.00006

   310    H   14  S      Val( 1S)     0.58529
   311    H   14  S      Ryd( 2S)     0.00239
   312    H   14  S      Ryd( 3S)     0.00022
   313    H   14  px     Ryd( 2p)     0.00030
   314    H   14  py     Ryd( 2p)     0.00033
   315    H   14  pz     Ryd( 2p)     0.00012


 Summary of Natural Population Analysis:                  
                                                          
                                       Natural Population 
                Natural  -----------------------------------------------
    Atom  No    Charge         Core      Valence    Rydberg      Total
 -----------------------------------------------------------------------
      C    1    0.76131      1.99957     3.19494    0.04418     5.23869
      O    2   -0.76774      1.99977     6.74429    0.02368     8.76774
      O    3   -0.74709      1.99977     6.72297    0.02435     8.74709
      C    4   -0.32732      1.99931     4.30566    0.02235     6.32732
      N    5   -0.60400      1.99953     5.57355    0.03092     7.60400
      H    6    0.18352      0.00000     0.81427    0.00222     0.81648
      H    7    0.13972      0.00000     0.85634    0.00394     0.86028
      C    8   -0.50723      1.99935     4.48047    0.02742     6.50723
      P    9    2.07792      9.99873     2.77626    0.14709    12.92208
      H   10    0.21841      0.00000     0.77983    0.00176     0.78159
      H   11    0.20440      0.00000     0.79298    0.00263     0.79560
      O   12   -1.03096      1.99984     6.99714    0.03398     9.03096
      O   13   -1.01229      1.99983     6.97717    0.03529     9.01229
      H   14    0.41136      0.00000     0.58529    0.00335     0.58864
 =======================================================================
   * Total *   -1.00000     25.99570    51.60115    0.40315    78.00000

                                 Natural Population      
 --------------------------------------------------------
   Core                      25.99570 ( 99.9835% of  26)
   Valence                   51.60115 ( 99.2330% of  52)
   Natural Minimal Basis     77.59685 ( 99.4831% of  78)
   Natural Rydberg Basis      0.40315 (  0.5169% of  78)
 --------------------------------------------------------

    Atom  No          Natural Electron Configuration
 ----------------------------------------------------------------------------
      C    1      [core]2S( 0.77)2p( 2.42)3S( 0.01)3p( 0.03)
      O    2      [core]2S( 1.73)2p( 5.01)3d( 0.02)
      O    3      [core]2S( 1.73)2p( 5.00)3d( 0.02)
      C    4      [core]2S( 1.09)2p( 3.22)3p( 0.01)3d( 0.01)
      N    5      [core]2S( 1.32)2p( 4.25)3p( 0.01)3d( 0.01)
      H    6            1S( 0.81)
      H    7            1S( 0.86)
      C    8      [core]2S( 1.13)2p( 3.35)3S( 0.01)3p( 0.01)3d( 0.01)
      P    9      [core]3S( 0.99)3p( 1.79)4S( 0.02)3d( 0.11)4p( 0.02)
      H   10            1S( 0.78)
      H   11            1S( 0.79)
      O   12      [core]2S( 1.83)2p( 5.17)3d( 0.03)
      O   13      [core]2S( 1.83)2p( 5.15)3d( 0.03)
      H   14            1S( 0.59)


 ***************************************************
 *******         Alpha spin orbitals         *******
 ***************************************************


 NATURAL POPULATIONS:  Natural atomic orbital occupancies 
                                                          
   NAO  Atom  No  lang   Type(AO)    Occupancy      Energy
 ----------------------------------------------------------
     1    C    1  S      Cor( 1S)     0.99978     -10.04286
     2    C    1  S      Val( 2S)     0.38576       0.04534
     3    C    1  S      Ryd( 4S)     0.00262       1.38321
     4    C    1  S      Ryd( 3S)     0.00010       1.22269
     5    C    1  S      Ryd( 5S)     0.00000      22.20749
     6    C    1  px     Val( 2p)     0.42173       0.13099
     7    C    1  px     Ryd( 3p)     0.00411       1.24617
     8    C    1  px     Ryd( 4p)     0.00015       1.26482
     9    C    1  py     Val( 2p)     0.39845       0.09270
    10    C    1  py     Ryd( 3p)     0.00158       1.07698
    11    C    1  py     Ryd( 4p)     0.00019       1.11312
    12    C    1  pz     Val( 2p)     0.39153       0.18692
    13    C    1  pz     Ryd( 3p)     0.00987       1.40962
    14    C    1  pz     Ryd( 4p)     0.00015       1.52407
    15    C    1  dxy    Ryd( 4d)     0.00023       3.44157
    16    C    1  dxy    Ryd( 3d)     0.00021       2.44002
    17    C    1  dxz    Ryd( 4d)     0.00062       3.93672
    18    C    1  dxz    Ryd( 3d)     0.00008       2.92803
    19    C    1  dyz    Ryd( 4d)     0.00079       3.64673
    20    C    1  dyz    Ryd( 3d)     0.00014       2.57086
    21    C    1  dx2y2  Ryd( 4d)     0.00017       3.33881
    22    C    1  dx2y2  Ryd( 3d)     0.00012       2.37952
    23    C    1  dz2    Ryd( 4d)     0.00063       4.39454
    24    C    1  dz2    Ryd( 3d)     0.00012       2.73152
    25    C    1  f(0)   Ryd( 4f)     0.00004       4.39284
    26    C    1  f(C1)  Ryd( 4f)     0.00004       4.34526
    27    C    1  f(S1)  Ryd( 4f)     0.00003       3.97541
    28    C    1  f(C2)  Ryd( 4f)     0.00002       3.71051
    29    C    1  f(S2)  Ryd( 4f)     0.00003       3.79811
    30    C    1  f(C3)  Ryd( 4f)     0.00001       3.48841
    31    C    1  f(S3)  Ryd( 4f)     0.00002       3.56464

    32    O    2  S      Cor( 1S)     0.99988     -18.69973
    33    O    2  S      Val( 2S)     0.86681      -0.75141
    34    O    2  S      Ryd( 4S)     0.00019       3.54104
    35    O    2  S      Ryd( 3S)     0.00009       2.34298
    36    O    2  S      Ryd( 5S)     0.00000      42.36606
    37    O    2  px     Val( 2p)     0.90272      -0.07623
    38    O    2  px     Ryd( 3p)     0.00085       0.90932
    39    O    2  px     Ryd( 4p)     0.00002       3.20385
    40    O    2  py     Val( 2p)     0.82715      -0.07219
    41    O    2  py     Ryd( 3p)     0.00057       0.83177
    42    O    2  py     Ryd( 4p)     0.00003       3.09496
    43    O    2  pz     Val( 2p)     0.77547      -0.09073
    44    O    2  pz     Ryd( 3p)     0.00064       0.78850
    45    O    2  pz     Ryd( 4p)     0.00012       3.94376
    46    O    2  dxy    Ryd( 3d)     0.00029       1.77303
    47    O    2  dxy    Ryd( 4d)     0.00001       6.59534
    48    O    2  dxz    Ryd( 3d)     0.00202       1.99152
    49    O    2  dxz    Ryd( 4d)     0.00001       6.77117
    50    O    2  dyz    Ryd( 3d)     0.00253       1.90329
    51    O    2  dyz    Ryd( 4d)     0.00002       6.70819
    52    O    2  dx2y2  Ryd( 3d)     0.00040       1.74645
    53    O    2  dx2y2  Ryd( 4d)     0.00001       6.56452
    54    O    2  dz2    Ryd( 3d)     0.00368       2.26378
    55    O    2  dz2    Ryd( 4d)     0.00001       6.90815
    56    O    2  f(0)   Ryd( 4f)     0.00008       6.20754
    57    O    2  f(C1)  Ryd( 4f)     0.00012       5.95547
    58    O    2  f(S1)  Ryd( 4f)     0.00011       5.92012
    59    O    2  f(C2)  Ryd( 4f)     0.00002       5.59489
    60    O    2  f(S2)  Ryd( 4f)     0.00002       5.60985
    61    O    2  f(C3)  Ryd( 4f)     0.00000       5.40317
    62    O    2  f(S3)  Ryd( 4f)     0.00000       5.40931

    63    O    3  S      Cor( 1S)     0.99988     -18.68689
    64    O    3  S      Val( 2S)     0.86337      -0.74270
    65    O    3  S      Ryd( 3S)     0.00019       1.39354
    66    O    3  S      Ryd( 4S)     0.00011       4.69935
    67    O    3  S      Ryd( 5S)     0.00000      42.46848
    68    O    3  px     Val( 2p)     0.84562      -0.07270
    69    O    3  px     Ryd( 3p)     0.00066       0.83315
    70    O    3  px     Ryd( 4p)     0.00006       3.48228
    71    O    3  py     Val( 2p)     0.81820      -0.06406
    72    O    3  py     Ryd( 3p)     0.00063       0.82347
    73    O    3  py     Ryd( 4p)     0.00003       3.09500
    74    O    3  pz     Val( 2p)     0.83430      -0.07932
    75    O    3  pz     Ryd( 3p)     0.00078       0.79930
    76    O    3  pz     Ryd( 4p)     0.00008       3.75136
    77    O    3  dxy    Ryd( 3d)     0.00124       1.83299
    78    O    3  dxy    Ryd( 4d)     0.00001       6.63979
    79    O    3  dxz    Ryd( 3d)     0.00280       2.10829
    80    O    3  dxz    Ryd( 4d)     0.00000       6.80837
    81    O    3  dyz    Ryd( 3d)     0.00167       1.84920
    82    O    3  dyz    Ryd( 4d)     0.00001       6.65266
    83    O    3  dx2y2  Ryd( 3d)     0.00132       1.83215
    84    O    3  dx2y2  Ryd( 4d)     0.00001       6.63473
    85    O    3  dz2    Ryd( 3d)     0.00217       2.08274
    86    O    3  dz2    Ryd( 4d)     0.00001       6.80825
    87    O    3  f(0)   Ryd( 4f)     0.00009       5.83254
    88    O    3  f(C1)  Ryd( 4f)     0.00006       6.04174
    89    O    3  f(S1)  Ryd( 4f)     0.00004       5.66662
    90    O    3  f(C2)  Ryd( 4f)     0.00007       5.78985
    91    O    3  f(S2)  Ryd( 4f)     0.00009       5.77170
    92    O    3  f(C3)  Ryd( 4f)     0.00002       5.54826
    93    O    3  f(S3)  Ryd( 4f)     0.00001       5.56031

    94    C    4  S      Cor( 1S)     0.99966     -10.00087
    95    C    4  S      Val( 2S)     0.54513      -0.16142
    96    C    4  S      Ryd( 3S)     0.00108       1.24469
    97    C    4  S      Ryd( 4S)     0.00013       2.41453
    98    C    4  S      Ryd( 5S)     0.00000      21.29133
    99    C    4  px     Val( 2p)     0.56462       0.01491
   100    C    4  px     Ryd( 3p)     0.00181       0.99762
   101    C    4  px     Ryd( 4p)     0.00016       1.75469
   102    C    4  py     Val( 2p)     0.55086       0.02618
   103    C    4  py     Ryd( 3p)     0.00098       0.99580
   104    C    4  py     Ryd( 4p)     0.00015       1.75135
   105    C    4  pz     Val( 2p)     0.49221       0.04420
   106    C    4  pz     Ryd( 3p)     0.00253       0.97453
   107    C    4  pz     Ryd( 4p)     0.00014       1.67778
   108    C    4  dxy    Ryd( 3d)     0.00067       1.45234
   109    C    4  dxy    Ryd( 4d)     0.00010       3.51514
   110    C    4  dxz    Ryd( 3d)     0.00076       1.50028
   111    C    4  dxz    Ryd( 4d)     0.00014       3.53354
   112    C    4  dyz    Ryd( 3d)     0.00065       1.52430
   113    C    4  dyz    Ryd( 4d)     0.00023       3.59251
   114    C    4  dx2y2  Ryd( 3d)     0.00047       1.30858
   115    C    4  dx2y2  Ryd( 4d)     0.00006       3.28382
   116    C    4  dz2    Ryd( 3d)     0.00064       1.53277
   117    C    4  dz2    Ryd( 4d)     0.00016       3.44162
   118    C    4  f(0)   Ryd( 4f)     0.00001       3.80308
   119    C    4  f(C1)  Ryd( 4f)     0.00005       3.69486
   120    C    4  f(S1)  Ryd( 4f)     0.00005       3.71157
   121    C    4  f(C2)  Ryd( 4f)     0.00004       3.74103
   122    C    4  f(S2)  Ryd( 4f)     0.00007       3.73813
   123    C    4  f(C3)  Ryd( 4f)     0.00002       3.60305
   124    C    4  f(S3)  Ryd( 4f)     0.00006       3.60042

   125    N    5  S      Cor( 1S)     0.99977     -14.08760
   126    N    5  S      Val( 2S)     0.65934      -0.45280
   127    N    5  S      Ryd( 3S)     0.00072       1.70596
   128    N    5  S      Ryd( 4S)     0.00009       3.16778
   129    N    5  S      Ryd( 5S)     0.00000      31.01501
   130    N    5  px     Val( 2p)     0.63240      -0.08982
   131    N    5  px     Ryd( 3p)     0.00213       0.97038
   132    N    5  px     Ryd( 4p)     0.00011       3.13007
   133    N    5  py     Val( 2p)     0.82796      -0.12024
   134    N    5  py     Ryd( 3p)     0.00365       0.86048
   135    N    5  py     Ryd( 4p)     0.00017       2.68675
   136    N    5  pz     Val( 2p)     0.66707      -0.09316
   137    N    5  pz     Ryd( 3p)     0.00136       0.87596
   138    N    5  pz     Ryd( 4p)     0.00009       3.12262
   139    N    5  dxy    Ryd( 3d)     0.00105       1.59795
   140    N    5  dxy    Ryd( 4d)     0.00012       4.90617
   141    N    5  dxz    Ryd( 3d)     0.00031       1.58935
   142    N    5  dxz    Ryd( 4d)     0.00018       4.94433
   143    N    5  dyz    Ryd( 3d)     0.00221       1.64377
   144    N    5  dyz    Ryd( 4d)     0.00004       4.96169
   145    N    5  dx2y2  Ryd( 3d)     0.00178       1.69993
   146    N    5  dx2y2  Ryd( 4d)     0.00007       4.93583
   147    N    5  dz2    Ryd( 3d)     0.00094       1.59851
   148    N    5  dz2    Ryd( 4d)     0.00010       4.91628
   149    N    5  f(0)   Ryd( 4f)     0.00001       4.59390
   150    N    5  f(C1)  Ryd( 4f)     0.00006       4.76348
   151    N    5  f(S1)  Ryd( 4f)     0.00006       4.78675
   152    N    5  f(C2)  Ryd( 4f)     0.00002       4.72848
   153    N    5  f(S2)  Ryd( 4f)     0.00004       4.71137
   154    N    5  f(C3)  Ryd( 4f)     0.00012       4.66115
   155    N    5  f(S3)  Ryd( 4f)     0.00005       4.62040

   156    H    6  S      Val( 1S)     0.40713       0.12148
   157    H    6  S      Ryd( 2S)     0.00065       0.72127
   158    H    6  S      Ryd( 3S)     0.00006       1.79091
   159    H    6  px     Ryd( 2p)     0.00007       2.45433
   160    H    6  py     Ryd( 2p)     0.00014       2.68274
   161    H    6  pz     Ryd( 2p)     0.00018       2.89296

   162    H    7  S      Val( 1S)     0.42817       0.08948
   163    H    7  S      Ryd( 2S)     0.00142       1.00986
   164    H    7  S      Ryd( 3S)     0.00007       1.73029
   165    H    7  px     Ryd( 2p)     0.00012       2.66120
   166    H    7  py     Ryd( 2p)     0.00023       2.74671
   167    H    7  pz     Ryd( 2p)     0.00012       2.57084

   168    C    8  S      Cor( 1S)     0.99967     -10.07277
   169    C    8  S      Val( 2S)     0.56365      -0.25553
   170    C    8  S      Ryd( 3S)     0.00300       1.56345
   171    C    8  S      Ryd( 4S)     0.00034       1.88872
   172    C    8  S      Ryd( 5S)     0.00000      21.36452
   173    C    8  px     Val( 2p)     0.48667      -0.03158
   174    C    8  px     Ryd( 3p)     0.00185       1.02721
   175    C    8  px     Ryd( 4p)     0.00020       1.59894
   176    C    8  py     Val( 2p)     0.58066      -0.07327
   177    C    8  py     Ryd( 3p)     0.00132       1.00479
   178    C    8  py     Ryd( 4p)     0.00020       1.27794
   179    C    8  pz     Val( 2p)     0.60925      -0.05229
   180    C    8  pz     Ryd( 3p)     0.00137       1.12188
   181    C    8  pz     Ryd( 4p)     0.00016       1.63859
   182    C    8  dxy    Ryd( 3d)     0.00138       1.38643
   183    C    8  dxy    Ryd( 4d)     0.00012       3.34329
   184    C    8  dxz    Ryd( 3d)     0.00078       1.24938
   185    C    8  dxz    Ryd( 4d)     0.00013       3.32729
   186    C    8  dyz    Ryd( 3d)     0.00081       1.31114
   187    C    8  dyz    Ryd( 4d)     0.00009       3.32365
   188    C    8  dx2y2  Ryd( 3d)     0.00074       1.47188
   189    C    8  dx2y2  Ryd( 4d)     0.00013       3.61482
   190    C    8  dz2    Ryd( 3d)     0.00081       1.26226
   191    C    8  dz2    Ryd( 4d)     0.00008       3.33045
   192    C    8  f(0)   Ryd( 4f)     0.00002       3.40514
   193    C    8  f(C1)  Ryd( 4f)     0.00004       3.63374
   194    C    8  f(S1)  Ryd( 4f)     0.00004       3.41200
   195    C    8  f(C2)  Ryd( 4f)     0.00004       3.54017
   196    C    8  f(S2)  Ryd( 4f)     0.00001       3.48154
   197    C    8  f(C3)  Ryd( 4f)     0.00003       3.58488
   198    C    8  f(S3)  Ryd( 4f)     0.00002       3.57470

   199    P    9  S      Cor( 1S)     1.00000     -76.19303
   200    P    9  S      Cor( 2S)     0.99974      -7.49369
   201    P    9  S      Val( 3S)     0.49304      -0.23948
   202    P    9  S      Ryd( 4S)     0.00817       0.71905
   203    P    9  S      Ryd( 5S)     0.00008      13.16936
   204    P    9  px     Cor( 2p)     0.99988      -4.72865
   205    P    9  px     Val( 3p)     0.30571       0.05882
   206    P    9  px     Ryd( 4p)     0.00269       1.05496
   207    P    9  px     Ryd( 5p)     0.00017       1.54539
   208    P    9  px     Ryd( 6p)     0.00001       7.17130
   209    P    9  py     Cor( 2p)     0.99990      -4.72432
   210    P    9  py     Val( 3p)     0.30501       0.10462
   211    P    9  py     Ryd( 4p)     0.00345       1.05258
   212    P    9  py     Ryd( 5p)     0.00012       1.52522
   213    P    9  py     Ryd( 6p)     0.00001       7.21997
   214    P    9  pz     Cor( 2p)     0.99985      -4.72793
   215    P    9  pz     Val( 3p)     0.28437       0.06890
   216    P    9  pz     Ryd( 4p)     0.00357       0.93953
   217    P    9  pz     Ryd( 5p)     0.00018       1.59010
   218    P    9  pz     Ryd( 6p)     0.00000       7.21147
   219    P    9  dxy    Ryd( 3d)     0.01224       1.11075
   220    P    9  dxy    Ryd( 4d)     0.00011       1.92254
   221    P    9  dxz    Ryd( 3d)     0.00807       1.06468
   222    P    9  dxz    Ryd( 4d)     0.00051       1.89766
   223    P    9  dyz    Ryd( 3d)     0.01057       1.08927
   224    P    9  dyz    Ryd( 4d)     0.00032       1.80223
   225    P    9  dx2y2  Ryd( 3d)     0.00773       1.07685
   226    P    9  dx2y2  Ryd( 4d)     0.00025       1.90586
   227    P    9  dz2    Ryd( 3d)     0.01452       0.98250
   228    P    9  dz2    Ryd( 4d)     0.00015       1.69240
   229    P    9  f(0)   Ryd( 4f)     0.00004       2.14674
   230    P    9  f(C1)  Ryd( 4f)     0.00005       2.17965
   231    P    9  f(S1)  Ryd( 4f)     0.00009       2.42180
[...]
 ! A20   A(8,9,13)             115.8071         -DE/DX =    0.0                 !
 ! A21   A(12,9,13)            129.415          -DE/DX =    0.0                 !
 ! D1    D(2,1,4,5)            -15.8962         -DE/DX =    0.0                 !
 ! D2    D(2,1,4,6)           -140.3534         -DE/DX =    0.0                 !
 ! D3    D(2,1,4,7)            104.5943         -DE/DX =    0.0                 !
 ! D4    D(3,1,4,5)            165.3214         -DE/DX =    0.0                 !
 ! D5    D(3,1,4,6)             40.8642         -DE/DX =    0.0                 !
 ! D6    D(3,1,4,7)            -74.1881         -DE/DX =    0.0                 !
 ! D7    D(1,4,5,8)            156.7736         -DE/DX =    0.0                 !
 ! D8    D(1,4,5,14)            24.4765         -DE/DX =    0.0                 !
 ! D9    D(6,4,5,8)            -79.6771         -DE/DX =    0.0                 !
 ! D10   D(6,4,5,14)           148.0258         -DE/DX =    0.0                 !
 ! D11   D(7,4,5,8)             38.8743         -DE/DX =    0.0                 !
 ! D12   D(7,4,5,14)           -93.4228         -DE/DX =    0.0                 !
 ! D13   D(4,5,8,9)            -55.1051         -DE/DX =    0.0                 !
 ! D14   D(4,5,8,10)          -174.9608         -DE/DX =    0.0                 !
 ! D15   D(4,5,8,11)            62.9811         -DE/DX =    0.0                 !
 ! D16   D(14,5,8,9)            71.5985         -DE/DX =    0.0                 !
 ! D17   D(14,5,8,10)          -48.2572         -DE/DX =    0.0                 !
 ! D18   D(14,5,8,11)         -170.3152         -DE/DX =    0.0                 !
 ! D19   D(5,8,9,12)           141.9815         -DE/DX =    0.0                 !
 ! D20   D(5,8,9,13)           -44.9511         -DE/DX =    0.0                 !
 ! D21   D(10,8,9,12)          -93.7581         -DE/DX =    0.0                 !
 ! D22   D(10,8,9,13)           79.3093         -DE/DX =    0.0                 !
 ! D23   D(11,8,9,12)           18.6165         -DE/DX =    0.0                 !
 ! D24   D(11,8,9,13)         -168.3161         -DE/DX =    0.0                 !
 --------------------------------------------------------------------------------
 GradGradGradGradGradGradGradGradGradGradGradGradGradGradGradGradGradGrad


 ----------------------------------------------------------------------

 Electric dipole moment (input orientation):
 (Debye = 10**-18 statcoulomb cm , SI units = C m)
                  (au)            (Debye)         (10**-30 SI)
   Tot        0.358352D+01      0.910841D+01      0.303824D+02
   x          0.312656D+01      0.794693D+01      0.265081D+02
   y          0.136840D+01      0.347813D+01      0.116018D+02
   z         -0.109258D+01     -0.277705D+01     -0.926326D+01

 Dipole polarizability, Alpha (input orientation).
 (esu units = cm**3 , SI units = C**2 m**2 J**-1)
 Alpha(0;0):
               (au)            (10**-24 esu)      (10**-40 SI)
   iso        0.830457D+02      0.123061D+02      0.136924D+02
   aniso      0.309115D+02      0.458062D+01      0.509662D+01
   xx         0.103361D+03      0.153164D+02      0.170418D+02
   yx         0.549382D+00      0.814100D-01      0.905808D-01
   yy         0.722547D+02      0.107070D+02      0.119132D+02
   zx        -0.215456D+01     -0.319273D+00     -0.355239D+00
   zy         0.190860D+01      0.282825D+00      0.314686D+00
   zz         0.735218D+02      0.108948D+02      0.121221D+02

 ----------------------------------------------------------------------

 Dipole orientation:
     6         -1.59201350         -0.84457318         -4.07649917
     8         -0.64974526         -2.99830251         -4.17535010
     8         -2.26136815          0.61441268         -5.77063186
     6         -1.92794783          0.20342584         -1.33939072
     7         -1.72561540         -1.80048237          0.48789931
     1         -3.72141969          1.22187236         -1.17403487
     1         -0.40343581          1.63337045         -1.05420759
     6         -1.04229588         -1.05489298          2.92861029
    15          1.95270675          0.80773257          3.16643612
     1         -0.75263809         -2.66360897          4.20278376
     1         -2.44143534          0.19560430          3.80515753
     8          1.88169158          2.84327413          5.03149297
     8          4.07975210         -0.15274462          1.70853622
     1         -0.67439616         -3.18758563         -0.35125537

 Electric dipole moment (dipole orientation):
 (Debye = 10**-18 statcoulomb cm , SI units = C m)
                  (au)            (Debye)         (10**-30 SI)
   Tot        0.358352D+01      0.910841D+01      0.303824D+02
   x          0.000000D+00      0.000000D+00      0.000000D+00
   y          0.000000D+00      0.000000D+00      0.000000D+00
   z          0.358352D+01      0.910841D+01      0.303824D+02

 Dipole polarizability, Alpha (dipole orientation).
 (esu units = cm**3 , SI units = C**2 m**2 J**-1)
 Alpha(0;0):
               (au)            (10**-24 esu)      (10**-40 SI)
   iso        0.830457D+02      0.123061D+02      0.136924D+02
   aniso      0.309115D+02      0.458062D+01      0.509662D+01
   xx         0.760852D+02      0.112747D+02      0.125447D+02
   yx         0.121739D+01      0.180398D+00      0.200720D+00
   yy         0.759329D+02      0.112521D+02      0.125196D+02
   zx         0.103532D+02      0.153418D+01      0.170701D+01
   zy         0.782868D+01      0.116009D+01      0.129078D+01
   zz         0.971190D+02      0.143915D+02      0.160128D+02

 ----------------------------------------------------------------------
 Unable to Open any file for archive entry.
 1\1\GINC-GADI-CPU-CLX-2986\Freq\UM06\def2TZVP\C3H5N1O4P1(1-)\OR4187\23
 -Sep-2024\0\\#N Geom=AllCheck Guess=TCheck SCRF=Check GenChk UM06/def2
 TZVP Freq\\glydehydratedlinear.CONF1.optfreq\\-1,1\C,-2.3472192308,-0.
 2116603839,0.0933387742\O,-2.476103426,0.6534012855,0.9795377018\O,-3.
 0798483314,-1.1493463748,-0.2371880607\C,-1.0159715024,-0.1057862291,-
 0.71513818\N,-0.3984547485,1.1780437181,-0.5116049881\H,-1.1974386439,
 -0.3087705635,-1.7756578346\H,-0.3549876902,-0.9262721436,-0.346236567
 9\C,0.9798073249,1.2284586185,-0.7405653573\P,2.0015909852,-0.00365390
 89,0.2274669207\H,1.4145987634,2.2029634557,-0.4873312092\H,1.24498823
 6,1.006833428,-1.780657289\O,3.1220491107,-0.5739776686,-0.517554305\O
 ,1.6676697849,-0.1341729679,1.6388224072\H,-0.7415358296,1.5184431803,
 0.3894241276\\Version=ES64L-G16RevC.01\State=1-A\HF=-814.3907127\S2=0.
 \S2-1=0.\S2A=0.\RMSD=4.490e-09\RMSF=8.656e-06\ZeroPoint=0.0930776\Ther
 mal=0.1025502\ETot=-814.2881625\HTot=-814.2872183\GTot=-814.3342786\Di
 pole=3.1265614,1.3684023,-1.0925774\DipoleDeriv=1.5772079,0.5280658,-0
 .3019137,0.7410952,1.3275234,0.6744336,-0.408247,0.7123021,0.9427244,-
 0.9317884,0.0333925,0.2480765,-0.1470831,-1.0100072,-0.4267507,0.21034
 56,-0.5383891,-0.9981801,-1.2305314,-0.5298334,-0.1121321,-0.6104046,-
 1.1294699,-0.2707254,-0.0082862,-0.2067681,-0.6500792,-0.0955704,-0.04
 87057,0.3324772,0.0189469,0.5001829,-0.0437237,0.4938117,0.0075982,0.2
 001861,-1.1310021,0.0988449,-0.1261664,0.1308094,-0.6985786,0.0692315,
 0.0967433,0.2043703,-0.3409309,-0.0111687,-0.0031295,-0.0304572,-0.039
 5417,0.0014095,-0.0009303,-0.0273582,-0.065682,-0.1745474,-0.2248653,0
 .1315813,-0.0779861,0.0597679,-0.1141503,0.0305629,-0.1442863,0.055189
 2,-0.0130101,0.9766869,-0.1909019,0.2252898,-0.3484243,0.2244507,-0.09
 96969,0.1376505,-0.1302553,0.1832317,1.5959334,-0.378813,-0.179758,-0.
 1085524,0.8318528,-0.0138855,-0.1274269,-0.0577359,1.491375,-0.0537364
 ,-0.0369759,-0.0182203,-0.120456,-0.0963268,0.0061239,-0.0697146,-0.01
 55155,0.053636,-0.0388129,0.0106776,-0.01182,0.0965835,0.0299499,0.000
 998,0.0285159,0.0322607,-0.1202812,-1.1750053,0.2982037,0.1317103,0.34
 58106,-0.5997372,-0.0264252,0.1894946,-0.0432348,-0.6976292,-0.6570151
 ,0.0973912,-0.0003417,0.0816544,-0.5001692,0.0996049,-0.1601238,0.1377
 696,-1.0536238,0.3996678,-0.0097975,-0.0787582,-0.1002059,0.23307,0.00
 11829,-0.2111186,-0.0919093,0.1771286\Polar=103.3605037,0.5493816,72.2
 546866,-2.1545626,1.9086006,73.5218084\Quadrupole=-22.1389484,12.44980
 81,9.6891403,0.2186983,2.4006926,-1.1863818\PG=C01 [X(C3H5N1O4P1)]\NIm
 ag=0\\0.50194561,0.19721836,0.74019659,0.00024221,0.31307051,0.5268825
 5,-0.10984113,0.03352080,0.05147459,0.10654133,0.03491488,-0.29411615,
 -0.22236820,-0.01801496,0.35264879,0.05303180,-0.22135341,-0.31906945,
 -0.07329695,0.30592426,0.36412384,-0.28504620,-0.22980212,-0.06292889,
 0.02717209,-0.02380899,-0.02186437,0.30419721,-0.23060962,-0.36265009,
 -0.09306396,-0.03405163,-0.06198877,-0.05676021,0.29967866,0.42982531,
 -0.06390187,-0.09330859,-0.12095700,-0.03088722,-0.06412535,-0.0095020
 8,0.07617911,0.15007495,0.11420444,-0.09015821,0.01502173,0.01086867,-
 0.01080815,0.00662823,0.03037485,-0.03539193,-0.03043245,0.01208492,0.
 43125438,0.00571751,-0.06530062,0.01238114,0.01188150,-0.00358799,-0.0
 2999753,-0.04187195,-0.00887455,0.00323095,-0.00122859,0.48226156,0.00
 449607,0.00950533,-0.07832283,0.03725919,-0.02813623,-0.02776881,0.003
 79566,-0.00413734,0.01115087,0.04822949,0.05306539,0.54737017,-0.01159
 756,-0.02419935,0.00016018,-0.00953415,-0.01013300,0.00156426,-0.01276
 814,-0.00621517,0.00212804,-0.09716310,-0.06450370,0.01065266,0.543074
 24,-0.01069608,-0.00620325,0.00481558,0.00009049,0.00099735,-0.0014169
 9,0.00003504,0.00320906,0.00058253,-0.03403635,-0.19240766,-0.02577718
 ,0.07942089,0.40115252,0.00186292,0.00996992,-0.00107199,0.00939445,0.
 00504262,0.00137588,0.00680452,0.00389413,0.00237022,-0.00290273,-0.04
 902769,-0.08877106,-0.17244836,0.18312830,0.47394110,0.00914380,0.0030
 1204,0.02382640,-0.00566331,0.00289722,0.00268318,-0.00003499,0.001087
 02,-0.00261848,-0.04755141,-0.00955686,-0.04015660,-0.00263268,-0.0073
 3485,-0.01312723,0.05127602,0.00178268,-0.00061577,-0.00110515,0.00001
 296,0.00115057,0.00047435,-0.00120230,-0.00051369,0.00091171,-0.005660
 98,-0.04703335,-0.03453937,-0.00706509,-0.01574232,-0.03177705,0.01097
 568,0.06326470,-0.00828209,-0.00522449,-0.01433106,0.00434409,-0.00037
 208,-0.00050483,0.00080284,0.00119178,0.00382548,-0.04318880,-0.036629
 07,-0.29013063,-0.00027677,-0.00561364,0.00230090,0.04879138,0.0471059
 8,0.31063114,-0.01411494,0.01883117,-0.01274352,-0.00014230,-0.0017423
 6,0.00453255,0.00088813,-0.00372097,0.00325577,-0.12269323,0.08787166,
 -0.05068003,0.00631627,-0.00848401,0.00398290,-0.00484673,0.00553151,-
 0.00127720,0.12736179,-0.00018882,-0.00020854,-0.00084797,0.00035833,0
 .00090251,0.00001682,-0.00003881,0.00062743,0.00006846,0.09055059,-0.1
 4325579,0.05229572,0.00386720,-0.04062839,0.00677546,-0.00038509,0.002
 67321,-0.00079843,-0.09641215,0.18019081,0.01174451,-0.01142368,0.0053
 3028,-0.00088842,0.00169122,-0.00211781,-0.00189917,0.00055847,-0.0005
 0998,-0.04756204,0.04794931,-0.06756091,0.00507337,-0.00202728,0.00475
 468,-0.01973378,0.02100236,-0.01098691,0.05177870,-0.05720144,0.071257
 38,-0.00289507,-0.00063297,-0.00161677,0.00298107,0.00171912,0.0000466
 5,0.00203193,0.00070986,0.00019314,-0.03385384,-0.00895144,-0.00429993
 ,-0.25887095,-0.03249636,0.06148370,0.00144228,0.00250880,0.00138696,0
 .00303358,0.01021183,-0.00080525,0.46371905,0.00363470,-0.00507475,-0.
 00725712,0.00024211,0.00294320,0.00148700,-0.00431627,-0.00176566,0.00
 179129,-0.03455340,-0.01015954,0.01192770,-0.02206369,-0.07086235,-0.0
 2371133,-0.00104203,0.00006665,-0.00037842,-0.00578881,0.00012668,-0.0
 0088950,0.10137635,0.43322342,0.00215432,-0.00335964,-0.00475476,0.002
 84654,0.00347225,0.00086153,-0.00087301,0.00074191,0.00148295,-0.00840
 653,0.00608401,-0.00033152,0.04862415,-0.02703711,-0.09254695,-0.00123
 289,-0.00144100,0.00078710,0.00279758,-0.00035046,0.00088961,-0.093140
 08,0.10591187,0.49298900,-0.00627393,-0.00254252,0.00546006,0.00281238
 ,-0.00119694,-0.00253439,0.00341092,0.00253575,-0.00092156,0.00009422,
 0.01938034,-0.00445771,-0.04087775,0.01560926,-0.00808075,0.00232747,-
 0.00265037,0.00071728,0.00798319,-0.00729359,0.00300732,-0.04947837,0.
 01379393,-0.01639035,0.56886279,-0.00070313,0.00093851,0.00233917,-0.0
 0023296,-0.00192372,-0.00112092,-0.00058879,-0.00122803,-0.00056979,-0
 .00752093,0.02351152,-0.00501720,0.01828410,-0.01153006,-0.00191241,0.
 00199470,-0.00239430,0.00038681,0.01030486,-0.00241903,0.00311167,0.00
 189402,-0.06394501,0.01352408,-0.23751852,0.26718322,-0.00359229,-0.00
 018867,0.00544191,0.00128011,-0.00065555,-0.00496264,0.00147109,0.0005
 7293,-0.00142338,0.00261420,0.00005206,-0.00340545,-0.00538296,-0.0019
 4738,0.00441444,-0.00066985,0.00073700,-0.00108130,0.00048663,-0.00031
 776,0.00128617,-0.01215465,0.01854411,-0.06623592,-0.35617849,0.017269
 98,0.94829909,0.00203849,-0.00247539,-0.00285164,-0.00011557,0.0009929
 3,0.00068259,-0.00189709,-0.00053872,0.00073218,-0.00565917,0.00363154
 ,0.00368417,-0.01773665,-0.03532156,-0.00954172,0.00001545,-0.00014125
 ,-0.00022241,0.00093436,-0.00035939,0.00032047,-0.07515800,-0.07388159
 ,-0.02063402,0.00590446,0.00973968,0.00525992,0.09274868,0.00201434,0.
 00021873,-0.00236912,-0.00051720,0.00042974,0.00102481,-0.00088304,-0.
 00062352,0.00043351,-0.00309388,0.00067331,0.00114911,-0.00006107,0.00
 161903,0.00132212,-0.00015575,-0.00003034,-0.00001802,-0.00003490,0.00
 083400,-0.00040841,-0.09147579,-0.25310201,-0.06001476,-0.00312492,-0.
 01734472,-0.00378361,0.09530087,0.26963021,0.00078769,0.00001631,0.000
 51638,-0.00027952,-0.00016838,0.00002259,-0.00023965,-0.00011206,-0.00
 026370,0.00123546,0.00108666,0.00157144,0.00115866,0.00556963,0.002211
 78,0.00061388,0.00006488,0.00003611,0.00039087,-0.00088902,0.00009287,
 -0.01715089,-0.05279359,-0.05580768,0.00438071,0.01569442,0.00232939,0
 .02415993,0.06034476,0.05633730,-0.00072445,0.00146323,0.00159749,-0.0
 0148830,-0.00169926,-0.00033583,-0.00011765,-0.00060007,-0.00049977,0.
 00228916,0.00258685,0.00089854,-0.01926495,0.01122459,0.03691823,-0.00
 007225,-0.00030818,-0.00097655,-0.00007381,-0.00050687,0.00001590,-0.0
 5239267,0.00836823,0.04639856,0.00301784,-0.00429917,-0.01198067,0.001
 66692,-0.00118774,-0.01070719,0.07086416,-0.00061237,-0.00036781,0.000
 26192,0.00028015,0.00008597,-0.00024653,0.00036980,0.00028612,-0.00008
 190,0.00055935,-0.00005047,0.00151609,0.00323444,0.00078639,-0.0015260
 0,0.00030800,0.00070110,-0.00037437,0.00011878,0.00013922,0.00021815,0
 .00459546,-0.05071225,-0.05107915,-0.00064182,-0.00065436,0.02042774,0
 .00487247,-0.00407508,-0.02650337,-0.01459189,0.05625634,0.00047783,-0
 .00022600,-0.00055818,-0.00006351,0.00046148,0.00051878,-0.00000008,0.
 00006708,0.00010812,-0.00031765,-0.00084809,0.00205466,0.00751980,-0.0
 0187503,-0.00053330,0.00067524,0.00073024,-0.00064307,-0.00049738,0.00
 019119,-0.00045484,0.05328464,-0.05649667,-0.27926377,0.00154482,-0.00
 042370,-0.01982380,0.00041932,0.00016694,-0.00428901,-0.05995138,0.054
 74539,0.30003889,0.00295742,0.00169973,-0.00078061,-0.00175204,-0.0006
 5974,0.00075134,-0.00203963,-0.00163436,0.00002531,0.00262179,0.000372
 70,0.00302160,-0.01174751,0.00442665,-0.00286468,-0.00043317,-0.000019
 07,-0.00040438,-0.00143525,-0.00086032,-0.00007106,0.01171634,-0.00237
 672,0.01738548,-0.41076370,0.20280735,0.23955814,-0.00314546,0.0027484
 1,-0.00257612,-0.00073298,0.00008100,-0.00044491,0.40933469,-0.0011044
 2,-0.00121243,-0.00065210,0.00085533,0.00112989,0.00003864,0.00109775,
 0.00116708,0.00023765,-0.00036085,-0.00790372,0.00009659,0.00831203,-0
 .00233196,0.00255494,-0.00022092,0.00074080,0.00022958,-0.00310084,0.0
 0131979,-0.00096224,0.00912065,0.01139912,-0.00918875,0.19942456,-0.13
 950266,-0.11411036,-0.00113812,0.00014462,-0.00069606,0.00006458,-0.00
 057980,-0.00041835,-0.20821119,0.12281914,0.00038457,-0.00058845,-0.00
 115551,-0.00000192,0.00034038,0.00115674,0.00004015,0.00029870,0.00039
 868,-0.00072126,-0.00033292,0.00036441,0.00035434,0.00083091,0.0008675
 4,0.00028666,-0.00014460,0.00034998,-0.00020427,-0.00012009,-0.0002914
 1,-0.00641759,0.00733606,0.00445447,0.23206872,-0.11124517,-0.21867634
 ,-0.00108361,0.00095048,-0.00031114,0.00165709,-0.00271670,0.00355217,
 -0.25444358,0.12033589,0.21650894,0.00168701,0.00064635,-0.00008895,-0
 .00076131,0.00011139,-0.00010906,-0.00104204,-0.00077549,-0.00009398,0
 .00069421,-0.00430126,0.00022438,0.00398743,-0.00172050,0.00026152,-0.
 00077520,0.00088645,-0.00042717,-0.00306310,0.00152227,-0.00111881,0.0
 0780339,0.00415782,-0.00659566,-0.08641865,0.00459134,0.13604054,-0.00
 091795,0.00066926,-0.00155472,-0.00083399,0.00222025,-0.00169552,0.004
 52822,-0.00402976,0.02902068,0.07443893,-0.00025841,-0.00099512,-0.000
 75542,0.00037992,0.00104514,0.00032247,0.00048780,0.00086394,0.0001806
 3,0.00100139,-0.00770575,0.00004440,0.00267813,0.00202358,-0.00021594,
 -0.00077517,0.00101229,-0.00003973,-0.00353153,0.00150278,-0.00118221,
 -0.00344902,0.00994380,0.01538611,0.00368561,-0.05040920,0.06571160,-0
 .00105745,0.00141294,-0.00222281,0.00334066,-0.00322961,0.00259789,0.0
 0206201,0.01235705,-0.01554160,-0.00328349,0.03174350,0.00269451,0.000
 19642,-0.00263064,-0.00147798,-0.00003986,0.00260336,-0.00156835,-0.00
 082590,0.00078887,0.00124809,0.00043305,0.00220587,-0.00940324,0.00053
 522,0.00260531,-0.00023418,-0.00002167,0.00004060,-0.00152036,-0.00070
 259,-0.00145595,0.02301098,-0.01060262,-0.00472053,0.14228817,0.068125
 80,-0.64971410,-0.00100537,0.00136984,-0.00216716,-0.00238546,0.005095
 10,-0.00188351,0.00227944,0.00136670,-0.00643253,-0.15433225,-0.064244
 51,0.66257582,0.00287918,-0.01176106,-0.01261922,0.00059940,0.00999148
 ,0.00447338,0.00063739,0.00456721,0.00432443,0.00632527,-0.00102829,-0
 .01266749,-0.07118449,0.01928277,0.08825723,-0.00219529,-0.00465086,-0
 .00098717,-0.00014796,-0.00046518,0.00013826,-0.02007873,0.01244937,0.
 02706590,-0.00060087,0.00124745,0.00324829,0.00132154,-0.00019860,-0.0
 0021910,-0.00213701,-0.00079360,-0.00095123,0.00089129,-0.00070880,-0.
 00093997,0.00067306,-0.00128045,0.00040602,0.08301723,-0.00110962,-0.0
 0460929,-0.00444927,0.00519516,0.00028347,0.00160726,0.00084323,0.0016
 6538,0.00057394,0.00312616,-0.02016695,-0.03199301,0.01844427,-0.07008
 194,-0.10451708,-0.00080400,-0.00327954,0.00053409,0.00015761,-0.00180
 468,-0.00043642,0.00486948,-0.00208130,0.00735065,0.00053922,-0.000282
 17,-0.00231210,0.00037598,0.00021308,0.00060862,-0.00385495,0.00141425
 ,0.00132761,-0.00043645,0.00045308,0.00059711,-0.00069463,0.00043465,-
 0.00068498,-0.02665144,0.09784195,-0.00210018,0.00291443,0.00468031,0.
 00029657,-0.00106656,-0.00673709,0.00028015,-0.00250048,-0.00167348,-0
 .00355667,-0.00744727,-0.00842619,0.11027586,-0.12976757,-0.31191856,0
 .00089628,-0.00199767,-0.00029351,-0.00030223,0.00188010,-0.00023318,-
 0.00382090,0.00513121,0.00219647,-0.00090383,-0.00016275,0.00355192,0.
 00008020,-0.00016766,-0.00027918,-0.00064896,0.00026362,0.00117686,-0.
 00143595,0.00116788,-0.00078601,0.00046898,-0.00004088,-0.00181540,-0.
 09952932,0.13179359,0.32055704\\0.00000962,-0.00000949,0.00000097,-0.0
 0000918,0.00000095,0.00000280,0.00000117,0.00000946,0.00000030,-0.0000
 0424,-0.00001325,-0.00000313,0.00000343,0.00001312,-0.00002130,0.00000
 152,0.00000418,0.00000133,-0.00000215,0.00000315,0.00000021,0.00001210
 ,0.00001624,-0.00000140,0.00001221,-0.00002185,0.00000699,-0.00000905,
 -0.00000290,0.00000297,0.00000003,-0.00000428,0.00000198,-0.00001224,0
 .00000718,0.00000899,0.00000243,0.00000463,-0.00001261,-0.00000566,-0.
 00000714,0.00001191\\\@
 The archive entry for this job was punched.



 WE LOSE BECAUSE WE WIN

 GAMBLERS,

 RECOLLECTING WHICH,

 TOSS THEIR DICE AGAIN....


                          EMILY DICKINSON  BOLTS OF MELODY NO. 533
 Job cpu time:       0 days  3 hours 22 minutes 26.2 seconds.
 Elapsed time:       0 days  0 hours  5 minutes 35.1 seconds.
 File lengths (MBytes):  RWF=    262 Int=      0 D2E=      0 Chk=     12 Scr=      1
 Normal termination of Gaussian 16 at Mon Sep 23 15:19:55 2024.
